
     Program MATDYN v.7.1 starts on 24Oct2025 at 16:19:28 

     This program is part of the open-source Quantum ESPRESSO suite
     for quantum simulation of materials; please cite
         "P. Giannozzi et al., J. Phys.:Condens. Matter 21 395502 (2009);
         "P. Giannozzi et al., J. Phys.:Condens. Matter 29 465901 (2017);
         "P. Giannozzi et al., J. Chem. Phys. 152 154105 (2020);
          URL http://www.quantum-espresso.org", 
     in publications or presentations arising from this work. More details at
     http://www.quantum-espresso.org/quote

     Parallel version (MPI), running on    48 processors

     MPI processes distributed on     1 nodes
     K-points division:     npool     =       4
     R & G space division:  proc/nbgrp/npool/nimage =      12
     180427 MiB available memory on the printing compute node when the environment starts
 
     Message from routine matdyn:
     Z* not found in file Ce1H10.fc, TO-LO splitting at q=0 will be absent!
 
  Gamma lines for all modes [Rydberg] 
 
 Broadening   0.0050
       1
-0.000000179-0.000000179 0.000000296 0.000015999 0.000024952 0.000012588
 0.000012588 0.000005739 0.000026116 0.000015209 0.000060932 0.000035967
 0.000035967 0.000005517 0.000073576-0.000018524 0.000016422 0.000016422
 0.000026777 0.000026777 0.000112807 0.000018788 0.000018895 0.000039089
 0.000039089 0.000076295 0.000076295 0.000064509-0.000012012 0.000052977
 0.000052977 0.000029418 0.000038367
       2
-0.000000172-0.000000169 0.000000297 0.000016017 0.000024981 0.000012716
 0.000012680 0.000005772 0.000026735 0.000015340 0.000061075 0.000035934
 0.000035566 0.000005690 0.000073146-0.000017717 0.000016913 0.000016384
 0.000026776 0.000027647 0.000112863 0.000019254 0.000019078 0.000038931
 0.000039113 0.000076184 0.000076111 0.000065337 0.000005464 0.000053277
 0.000035842 0.000029459 0.000038443
       3
-0.000000153-0.000000141 0.000000302 0.000016069 0.000025069 0.000013098
 0.000012955 0.000005873 0.000028566 0.000015728 0.000061451 0.000035839
 0.000034424 0.000006206 0.000071884-0.000015507 0.000018356 0.000016498
 0.000026749 0.000030230 0.000112957 0.000020375 0.000019923 0.000038481
 0.000039171 0.000075875 0.000075573 0.000067750 0.000015368 0.000054172
 0.000027028 0.000029500 0.000038664
       4
-0.000000127-0.000000096 0.000000313 0.000016160 0.000025220 0.000013728
 0.000013401 0.000006042 0.000031537 0.000016354 0.000061923 0.000035687
 0.000032707 0.000007056 0.000069883-0.000012276 0.000020671 0.000017194
 0.000026621 0.000034440 0.000112801 0.000022465 0.000021265 0.000037804
 0.000039234 0.000075435 0.000074714 0.000071555 0.000020870 0.000055645
 0.000023614 0.000029264 0.000039007
       5
-0.000000093-0.000000034 0.000000332 0.000016295 0.000025439 0.000014596
 0.000014003 0.000006283 0.000035530 0.000017197 0.000062327 0.000035485
 0.000030627 0.000008222-0.000008258 0.000067293 0.000023717 0.000018751
 0.000026273 0.000040149 0.000111645 0.000026138 0.000023027 0.000036999
 0.000039253 0.000074931 0.000073590 0.000076481 0.000024928 0.000057666
 0.000023124 0.000028215 0.000039436
       6
-0.000000054 0.000000041 0.000000358 0.000016479 0.000025736 0.000015688
 0.000014738 0.000006598 0.000040383 0.000018232 0.000062526 0.000035233
 0.000028389 0.000009688-0.000003528 0.000064310 0.000027295 0.000021214
 0.000025615 0.000047192 0.000107817 0.000032893 0.000025125 0.000036176
 0.000039171 0.000074406 0.000072271 0.000082227 0.000028297 0.000060194
 0.000025241 0.000025846 0.000039903
       7
-0.000000008 0.000000127 0.000000388 0.000016721 0.000026117 0.000016986
 0.000015579 0.000006990 0.000045895 0.000019439 0.000062426 0.000034921
 0.000026175 0.000011430 0.000001874 0.000061175 0.000031150 0.000024333
 0.000024770 0.000055384 0.000099052 0.000044786 0.000027474 0.000035445
 0.000038927 0.000073866 0.000070830 0.000088493 0.000031215 0.000063176
 0.000029099 0.000022702 0.000040353
       8
 0.000000045 0.000000221 0.000000420 0.000017032 0.000026590 0.000018468
 0.000016495 0.000007457 0.000051834 0.000020798 0.000061979 0.000034534
 0.000024140 0.000013428 0.000007853 0.000058144 0.000034993 0.000027498
 0.000024231 0.000064519 0.000086332 0.000060601 0.000029980 0.000034897
 0.000038470 0.000073283 0.000069343 0.000094996 0.000033762 0.000066547
 0.000033090 0.000020213 0.000040722
       9
 0.000000105 0.000000320 0.000000454 0.000017423 0.000027161 0.000020106
 0.000017453 0.000007997 0.000057946 0.000022293 0.000061174 0.000034047
 0.000022413 0.000015660 0.000014240 0.000055471 0.000038530 0.000030065
 0.000024569 0.000074382 0.000075070 0.000074675 0.000032534 0.000034590
 0.000037766 0.000072611 0.000067874 0.000101473 0.000035967 0.000070229
 0.000036441 0.000019020 0.000040944
      10
 0.000000170 0.000000420 0.000000487 0.000017908 0.000027834 0.000021870
 0.000018418 0.000008606 0.000063967 0.000023905 0.000060035 0.000033437
 0.000021102 0.000018109 0.000020811 0.000053360 0.000041508 0.000031891
 0.000025883 0.000084750 0.000067800 0.000084205 0.000035009 0.000034547
 0.000036819 0.000071799 0.000066473 0.000107686 0.000037837 0.000074134
 0.000039164 0.000018995 0.000040956
      11
 0.000000242 0.000000519 0.000000519 0.000018504 0.000028607 0.000023723
 0.000019355 0.000009272 0.000069635 0.000025615 0.000058618 0.000032676
 0.000020285 0.000020757 0.000027327 0.000051942 0.000033252 0.000043756
 0.000027855 0.000095411 0.000063408 0.000090013 0.000037234 0.000034756
 0.000035694 0.000070804 0.000065169 0.000113414 0.000039377 0.000078164
 0.000041391 0.000019889 0.000040694
      12
 0.000000317 0.000000611 0.000000547 0.000019228 0.000029476 0.000025624
 0.000020228 0.000009982 0.000074699 0.000027403 0.000057009 0.000031736
 0.000020008 0.000023589 0.000033570 0.000051239 0.000034453 0.000045207
 0.000030105 0.000106201 0.000060276 0.000093382 0.000038944 0.000035171
 0.000034581 0.000069594 0.000063967 0.000118462 0.000040594 0.000082213
 0.000043186 0.000021518 0.000040105
      13
 0.000000395 0.000000696 0.000000573 0.000020099 0.000030431 0.000027526
 0.000021004 0.000010721 0.000078916 0.000029248 0.000055342 0.000030593
 0.000020280 0.000026584 0.000039361 0.000051170 0.000035673 0.000045904
 0.000032349 0.000117057 0.000057145 0.000095147 0.000039631 0.000035723
 0.000033942 0.000068154 0.000062849 0.000122655 0.000041498 0.000086169
 0.000044558 0.000023756 0.000039142
      14
 0.000000473 0.000000769 0.000000596 0.000021140 0.000031457 0.000029377
 0.000021654 0.000011469 0.000082024 0.000031129 0.000053826 0.000029228
 0.000021073 0.000029720 0.000044559 0.000051563 0.000036977 0.000045973
 0.000034385 0.000127999 0.000053073 0.000095788 0.000038275 0.000036325
 0.000034784 0.000066481 0.000061773 0.000125848 0.000042105 0.000089920
 0.000045484 0.000026506 0.000037769
      15
 0.000000552 0.000000828 0.000000616 0.000022370 0.000032538 0.000031117
 0.000022150 0.000012205 0.000083653 0.000052830 0.000033027 0.000027630
 0.000022323 0.000032959 0.000049062 0.000052191 0.000038362 0.000045582
 0.000036066 0.000137347 0.000049068 0.000095593 0.000036887 0.000033755
 0.000038250 0.000064584 0.000060682 0.000127923 0.000042437 0.000093352
 0.000045933 0.000029681 0.000035964
      16
 0.000000627 0.000000872 0.000000633 0.000023809 0.000033655 0.000032682
 0.000022469 0.000012909 0.000083104 0.000053100 0.000034923 0.000025805
 0.000023944 0.000036245 0.000052799 0.000052806 0.000039788 0.000044899
 0.000037278 0.000128750 0.000060986 0.000094760 0.000037317 0.000027622
 0.000042835 0.000062484 0.000059503 0.000128795 0.000042517 0.000096357
 0.000045877 0.000033199 0.000033717
      17
 0.000000698 0.000000899 0.000000647 0.000025471 0.000034791 0.000034004
 0.000022588 0.000013564 0.000078933 0.000056161 0.000036798 0.000023787
 0.000025831 0.000039488 0.000055728 0.000053172 0.000041196 0.000044064
 0.000037937 0.000101040 0.000089636 0.000093446 0.000037534 0.000022623
 0.000045868 0.000060202 0.000058159 0.000128412 0.000042373 0.000098833
 0.000045293 0.000036974 0.000031033
      18
 0.000000763 0.000000909 0.000000660 0.000027363 0.000035943 0.000035001
 0.000022486 0.000014162 0.000069465 0.000063792 0.000038636 0.000021653
 0.000027872 0.000042557 0.000057832 0.000053084 0.000042525 0.000043171
 0.000037977 0.000084644 0.000104353 0.000091788 0.000037470 0.000018970
 0.000047230 0.000057764 0.000056570 0.000126759 0.000042031 0.000100690
 0.000044173 0.000040920 0.000027929
      19
 0.000000820 0.000000901 0.000000672 0.000029482 0.000037125 0.000035579
 0.000022129 0.000014713 0.000057450 0.000073360 0.000040419 0.000019529
 0.000029960 0.000045269 0.000059118 0.000052381 0.000043713 0.000042262
 0.000037355 0.000075198 0.000109379 0.000089912 0.000037072 0.000016183
 0.000047507 0.000055198 0.000054662 0.000123855 0.000041523 0.000101852
 0.000042521 0.000044946 0.000024439
      20
 0.000000868 0.000000876 0.000000683 0.000031809 0.000038401 0.000035606
 0.000021428 0.000015295 0.000048838 0.000079028 0.000042127 0.000017585
 0.000031992 0.000047403 0.000059611 0.000050956 0.000044703 0.000041341
 0.000036047 0.000068203 0.000109199 0.000087932 0.000036308 0.000014033
 0.000047041 0.000052526 0.000052372 0.000119757 0.000040876 0.000102257
 0.000040357 0.000048960 0.000020608
      21
 0.000000905 0.000000835 0.000000695 0.000034311 0.000039943 0.000034856
 0.000019948 0.000016340 0.000044169 0.000080369 0.000043739 0.000015993
 0.000033876 0.000048746 0.000059353 0.000048747 0.000045448 0.000040380
 0.000034048 0.000062044 0.000105525 0.000085940 0.000035158 0.000012456
 0.000046011 0.000049775 0.000049654 0.000114555 0.000040122 0.000101863
 0.000037716 0.000052867 0.000016492
      22
 0.000000932 0.000000780 0.000000708 0.000036937 0.000042202 0.000032844
 0.000009964 0.000025582 0.000041809 0.000045230 0.000079112 0.000014860
 0.000035530 0.000049162 0.000058400 0.000045747 0.000045907 0.000039333
 0.000056115 0.000031372 0.000099174 0.000084000 0.000033611 0.000011447
 0.000044524 0.000046965 0.000046484 0.000108368 0.000039289 0.000100645
 0.000034646 0.000056574 0.000012159
      23
 0.000000947 0.000000711 0.000000722 0.000039621 0.000046365 0.000028365
 0.000012390 0.000022126 0.000040785 0.000046568 0.000076320 0.000014179
 0.000036884 0.000048647 0.000056816 0.000041991 0.000046052 0.000038151
 0.000050182 0.000028052 0.000090700 0.000082126 0.000031670 0.000011012
 0.000042663 0.000044119 0.000042865 0.000101346 0.000038407 0.000098596
 0.000031208 0.000059988 0.000007686
      24
 0.000000950 0.000000631 0.000000737 0.000042284 0.000052395 0.000021461
 0.000012976 0.000020251 0.000040652 0.000047718 0.000072505 0.000013832
 0.000047330 0.000037876 0.000054672 0.000037555 0.000045863 0.000036791
 0.000044173 0.000024137 0.000080587 0.000079299 0.000030346 0.000011150
 0.000040496 0.000041260 0.000038827 0.000037506 0.000093660 0.000095729
 0.000027473 0.000063021 0.000003154
      25
 0.000000942 0.000000543 0.000000753 0.000044837 0.000049203 0.000023240
 0.000012805 0.000018907 0.000041190 0.000048641 0.000067944 0.000013650
 0.000045405 0.000038453 0.000052040 0.000032549 0.000045332 0.000035220
 0.000038094 0.000019694 0.000069269 0.000045719 0.000059442 0.000011838
 0.000038083 0.000038409 0.000034432 0.000036611 0.000085501 0.000092073
 0.000023521 0.000065594-0.000001348
      26
 0.000000923 0.000000448 0.000000770 0.000047187 0.000043871 0.000026657
 0.000012326 0.000017688 0.000042262 0.000049297 0.000062811 0.000013476
 0.000043074 0.000038575 0.000048998 0.000027113 0.000044458 0.000033421
 0.000031994 0.000014810 0.000057030 0.000033053 0.000067433 0.000013032
 0.000035471 0.000035591 0.000029772 0.000035748 0.000077070 0.000087670
 0.000019438 0.000067634-0.000005732
      27
 0.000000894 0.000000351 0.000000787 0.000049243 0.000040087 0.000028065
 0.000011640 0.000016538 0.000043761 0.000049644 0.000057237 0.000013206
 0.000040499 0.000038209 0.000045623 0.000021406 0.000043253 0.000031398
 0.000025941 0.000009588 0.000043931 0.000031024 0.000064949 0.000014661
 0.000032701 0.000032830 0.000024961 0.000034934 0.000068578 0.000082578
 0.000015310 0.000069079-0.000009908
      28
 0.000000856 0.000000252 0.000000804 0.000050922 0.000036966 0.000028405
 0.000010786 0.000015463 0.000045587 0.000049645 0.000051332 0.000012786
 0.000037799 0.000037339 0.000041990 0.000015599 0.000041735 0.000029168
 0.000020018 0.000004162 0.000030861 0.000030769 0.000016623 0.000060368
 0.000029809 0.000030150 0.000020131 0.000034181 0.000060233 0.000076864
 0.000011225 0.000069883-0.000013793
      29
 0.000000810 0.000000154 0.000000818 0.000052148 0.000034068 0.000028172
 0.000009788 0.000014484 0.000047645 0.000049273 0.000045187 0.000012209
 0.000035052 0.000035962 0.000038178 0.000009866 0.000039932 0.000026767
 0.000014309-0.000001303 0.000021250 0.000028354 0.000018774 0.000054579
 0.000026829 0.000027578 0.000015418 0.000033492 0.000052239 0.000070603
 0.000007267 0.000070012-0.000017306
      30
 0.000000758 0.000000061 0.000000829 0.000052862 0.000031222 0.000027596
 0.000008665 0.000013622 0.000049847 0.000048505 0.000038881 0.000011492
 0.000032307 0.000034093 0.000034262 0.000004379 0.000037877 0.000024240
 0.000008901-0.000006592 0.000015810 0.000023066 0.000020923 0.000047937
 0.000023798 0.000025135 0.000010962 0.000032850 0.000044787 0.000063875
 0.000003515 0.000069450-0.000020378
      31
 0.000000700-0.000000027 0.000000836 0.000053022 0.000028366 0.000026795
 0.000007438 0.000012893 0.000052118 0.000047335 0.000032466 0.000010667
 0.000029599 0.000031769 0.000030316-0.000000706 0.000035608 0.000021640
 0.000003875-0.000011432 0.000012359 0.000017098 0.000022815 0.000040756
 0.000020759 0.000022842 0.000006901 0.000032214 0.000038047 0.000056765
 0.000000039 0.000068198-0.000022947
      32
 0.000000640-0.000000106 0.000000837 0.000052601 0.000025480 0.000025845
 0.000006129 0.000012303 0.000054406 0.000045766 0.000025969 0.000009771
 0.000026947 0.000029046 0.000026413-0.000005254 0.000033168 0.000019025
-0.000000692-0.000015493 0.000009730 0.000024139 0.000011583 0.000033350
 0.000017762 0.000020713 0.000003399 0.000031485 0.000032161 0.000049363
-0.000003100 0.000066272-0.000024968
      33
 0.000000578-0.000000176 0.000000831 0.000051593 0.000022570 0.000024792
 0.000004764 0.000011849 0.000056650 0.000043815 0.000019426 0.000008839
 0.000024367 0.000025998 0.000022618-0.000009156 0.000030602 0.000016450
-0.000004733-0.000018426 0.000007553 0.000024566 0.000006832 0.000026015
 0.000014864 0.000018760 0.000000733 0.000030413 0.000027234 0.000041771
-0.000005851 0.000063710-0.000026409
      34
 0.000000515-0.000000235 0.000000818 0.000050009 0.000019652 0.000023674
 0.000003373 0.000011515 0.000058433 0.000041510 0.000013228 0.000007901
 0.000021872 0.000022719 0.000018996-0.000012334 0.000027955 0.000013968
-0.000008189-0.000019954 0.000005715 0.000023838 0.000002882 0.000019015
 0.000012122 0.000016986-0.000000427 0.000028320 0.000023312 0.000034108
-0.000008177 0.000060560-0.000027254
      35
 0.000000454-0.000000281 0.000000796 0.000047877 0.000016746 0.000001992
 0.000022515 0.000011275 0.000038890 0.000056759 0.000010346 0.000006981
 0.000019473 0.000019313 0.000015601-0.000014742 0.000025272 0.000011624
-0.000011016-0.000019996 0.000004176 0.000021892-0.000000307 0.000012563
 0.000009592 0.000015389 0.000001463 0.000023625 0.000020374 0.000026526
-0.000010051 0.000056889-0.000027503
      36
 0.000000395-0.000000315 0.000000766 0.000045239 0.000013883 0.000000657
 0.000021332 0.000011094 0.000036002 0.000044294 0.000018099 0.000006098
 0.000017180 0.000015893 0.000012482-0.000016369 0.000022597 0.000009455
-0.000013181-0.000018736 0.000002912 0.000018928-0.000002792 0.000006819
 0.000007323 0.000013961 0.000007252 0.000015420 0.000018305 0.000019229
-0.000011460 0.000052773-0.000027173
      37
 0.000000338-0.000000337 0.000000727 0.000042154 0.000011093-0.000000596
 0.000020139 0.000010932 0.000032901 0.000029089 0.000028428 0.000005266
 0.000015002 0.000012574 0.000009679-0.000017234 0.000019971 0.000007491
-0.000014673-0.000016566 0.000001905 0.000015350-0.000004635 0.000001894
 0.000005354 0.000012688 0.000013052 0.000007512 0.000016897 0.000012472
-0.000012402 0.000048301-0.000026301
      38
 0.000000286-0.000000345 0.000000679 0.000038690 0.000008414-0.000001730
 0.000018938 0.000010749 0.000029645 0.000019423 0.000033053 0.000004493
 0.000012950 0.000009463 0.000007219-0.000017388 0.000017427 0.000005752
-0.000015498-0.000013938 0.000001130 0.000011617-0.000005894-0.000002152
 0.000003707 0.000011551 0.000015992 0.000002689 0.000015868 0.000006543
-0.000012887 0.000043567-0.000024934
      39
 0.000000238-0.000000342 0.000000624 0.000034927 0.000005887-0.000002711
 0.000017730 0.000010505 0.000026297 0.000013363 0.000033924 0.000003784
 0.000011033 0.000006657 0.000005122-0.000016904 0.000004250 0.000014998
-0.000015681-0.000011237 0.000000561 0.000008113-0.000006629-0.000005300
 0.000002388 0.000010528 0.000016758 0.000000182 0.000014924 0.000001704
-0.000012935 0.000038670-0.000023138
      40
 0.000000195-0.000000327 0.000000562 0.000030951 0.000003556-0.000003512
 0.000016506 0.000010166 0.000022920 0.000009241 0.000032736 0.000003142
 0.000009259 0.000004234 0.000003394-0.000015879 0.000002989 0.000012708
-0.000015270-0.000008719 0.000000166 0.000005088-0.000006902-0.000007568
 0.000001387 0.000009593 0.000016278-0.000001013 0.000013836-0.000001884
-0.000012577 0.000033714-0.000020990
      41
 0.000000156-0.000000303 0.000000495 0.000026856 0.000001472-0.000004109
 0.000015251 0.000009704 0.000019579 0.000006306 0.000030286 0.000002567
 0.000007634 0.000002248 0.000002028-0.000014422 0.000001965 0.000010577
-0.000014334-0.000006525-0.000000085 0.000002667-0.000006777-0.000008999
 0.000000676 0.000008717 0.000015062-0.000001464 0.000012499-0.000004211
-0.000011853 0.000028797-0.000018575
      42
 0.000000123-0.000000271 0.000000425 0.000022739-0.000000311-0.000004486
 0.000013945 0.000009100 0.000016336 0.000004190 0.000027006 0.000002056
 0.000006163 0.000000727 0.000001007-0.000012651 0.000001165 0.000008621
-0.000012958-0.000004709-0.000000224 0.000000877-0.000006325-0.000009661
 0.000000214 0.000007868 0.000013388-0.000001487 0.000010922-0.000005405
-0.000010813 0.000024019-0.000015988
      43
 0.000000094-0.000000234 0.000000354 0.000018698-0.000001737-0.000004632
 0.000012557 0.000008345 0.000013251 0.000002680 0.000023191 0.000001608
 0.000004850-0.000000330 0.000000299-0.000010689 0.000000571 0.000006850
-0.000011247-0.000003271-0.000000280-0.000000316-0.000005623-0.000009635
-0.000000051 0.000007016 0.000011438-0.000001277 0.000009188-0.000005684
-0.000009516 0.000019474-0.000013326
      44
 0.000000070-0.000000193 0.000000284 0.000014834-0.000002751-0.000004543
 0.000011055 0.000007436 0.000010381 0.000001629 0.000019089 0.000001219
 0.000003697-0.000000956-0.000000137-0.000008654 0.000000154 0.000005271
-0.000009313-0.000002177-0.000000279-0.000000988-0.000004750-0.000009016
-0.000000170 0.000006128 0.000009356-0.000000967 0.000007408-0.000005296
-0.000008030 0.000015247-0.000010688
      45
 0.000000050-0.000000151 0.000000217 0.000011243-0.000003302-0.000004222
 0.000009409 0.000006383 0.000007780 0.000000927 0.000014928 0.000000889
 0.000002704-0.000001208-0.000000353-0.000006658-0.000000115 0.000003891
-0.000007282-0.000001379-0.000000243-0.000001240-0.000003786-0.000007911
-0.000000195 0.000005179 0.000007266-0.000000648 0.000005681-0.000004483
-0.000006437 0.000011418-0.000008172
      46
 0.000000034-0.000000111 0.000000156 0.000008019-0.000003361-0.000003679
 0.000007601 0.000005202 0.000005493 0.000000485 0.000010930 0.000000613
 0.000001869-0.000001170-0.000000403-0.000004799-0.000000267 0.000002714
-0.000005285-0.000000822-0.000000189-0.000001184-0.000002810-0.000006438
-0.000000167 0.000004154 0.000005282-0.000000378 0.000004090-0.000003455
-0.000004826 0.000008057-0.000005867
      47
 0.000000021-0.000000074 0.000000103 0.000005246-0.000002942-0.000002936
 0.000005653 0.000003924 0.000003564 0.000000226 0.000007306 0.000000390
 0.000001191-0.000000938-0.000000345-0.000003162-0.000000322 0.000001743
-0.000003460-0.000000453-0.000000131-0.000000937-0.000001896-0.000004744
-0.000000118 0.000003063 0.000003507-0.000000184 0.000002698-0.000002388
-0.000003296 0.000005224-0.000003858
      48
 0.000000012-0.000000043 0.000000059 0.000003003-0.000002137-0.000002041
 0.000003660 0.000002603 0.000002026 0.000000090 0.000004251 0.000000218
 0.000000667-0.000000617-0.000000234-0.000001819-0.000000287 0.000000983
-0.000001944-0.000000222-0.000000078-0.000000610-0.000001111-0.000003012
-0.000000070 0.000001963 0.000002029-0.000000070 0.000001556-0.000001420
-0.000001955 0.000002968-0.000002216
      49
 0.000000005-0.000000020 0.000000027 0.000001351-0.000001156-0.000001098
 0.000001831 0.000001349 0.000000907 0.000000028 0.000001936 0.000000096
 0.000000295-0.000000305-0.000000117-0.000000821-0.000000179 0.000000438
-0.000000847-0.000000089-0.000000036-0.000000298-0.000000508-0.000001472
-0.000000032 0.000000971 0.000000920-0.000000018 0.000000705-0.000000655
-0.000000904 0.000001329-0.000000999
      50
 0.000000001-0.000000005 0.000000007 0.000000340-0.000000328-0.000000317
 0.000000496 0.000000379 0.000000227 0.000000005 0.000000491 0.000000023
 0.000000073-0.000000081-0.000000032-0.000000207-0.000000055 0.000000109
-0.000000207-0.000000021-0.000000010-0.000000079-0.000000130-0.000000391
-0.000000008 0.000000261 0.000000233-0.000000002 0.000000178-0.000000168
-0.000000232 0.000000334-0.000000252
      51
 0.000000000 0.000000000 0.000000000-0.000000000-0.000000000-0.000000000
-0.000000000-0.000000000-0.000000000-0.000000000 0.000000000-0.000000001
-0.000000001-0.000000001-0.000000000-0.000000000-0.000000001-0.000000001
-0.000000001-0.000000000-0.000000001-0.000000001-0.000000001 0.000000000
-0.000000001-0.000000001 0.000000000-0.000000000-0.000000000-0.000000001
-0.000000001 0.000000000 0.000000000
      52
 0.000000004 0.000000004-0.000000007-0.000000116-0.000000633-0.000000633
 0.000000683 0.000000683 0.000000183 0.000000183 0.000003954-0.000000020
 0.000000006 0.000000006 0.000000439 0.000000439-0.000000284-0.000000064
-0.000000064-0.000001567 0.000000132 0.000000573 0.000000573 0.000001851
 0.000000842 0.000000842 0.000000635-0.000000030-0.000000030 0.000000868
 0.000000868-0.000000450 0.000002573
      53
 0.000000017 0.000000017-0.000000028-0.000000432-0.000001275-0.000001275
 0.000001479 0.000001479 0.000000729 0.000000729 0.000015523-0.000000073
 0.000000030 0.000000030 0.000001733 0.000001733-0.000001110-0.000000241
-0.000000241-0.000005048-0.000000442 0.000002250 0.000002250 0.000007275
 0.000003348 0.000003348 0.000002535-0.000000109-0.000000109 0.000003417
 0.000003417-0.000001723 0.000010107
      54
 0.000000037 0.000000037-0.000000062-0.000000850-0.000001735-0.000001735
 0.000002200 0.000002200 0.000001615 0.000001615 0.000033873-0.000000155
 0.000000083 0.000000083 0.000003815 0.000003815-0.000002418-0.000000503
-0.000000503-0.000001774-0.000009687 0.000004899 0.000004899 0.000015897
 0.000007443 0.000007443 0.000005683-0.000000202-0.000000202 0.000007488
 0.000007488-0.000003594 0.000022072
      55
 0.000000062 0.000000062-0.000000107-0.000001200-0.000001979-0.000001979
 0.000002821 0.000002821 0.000002810 0.000002810 0.000057746-0.000000255
 0.000000182 0.000000182 0.000006579 0.000006579-0.000004105-0.000000802
-0.000000802 0.000027316-0.000045642 0.000008317 0.000008317 0.000027131
 0.000012998 0.000012998 0.000010025-0.000000258-0.000000258 0.000012820
 0.000012820-0.000005751 0.000037658
      56
 0.000000091 0.000000091-0.000000160-0.000001225-0.000001977-0.000001977
 0.000003316 0.000003316 0.000004269 0.000004269 0.000085595-0.000000359
 0.000000351 0.000000351 0.000009891 0.000009891-0.000006035-0.000001087
-0.000001087 0.000029336-0.000054250 0.000012250 0.000012250 0.000040241
 0.000019815 0.000019815 0.000015457-0.000000215-0.000000215 0.000019063
 0.000019063-0.000007850 0.000055855
      57
 0.000000121 0.000000121-0.000000217-0.000000581-0.000001710-0.000001710
 0.000003669 0.000003669 0.000115713 0.000005934 0.000005934-0.000000453
 0.000000612 0.000000612 0.000013594 0.000013594-0.000008044-0.000001308
-0.000001308 0.000033175-0.000063246 0.000016420 0.000016420 0.000054417
 0.000027619 0.000027619 0.000021806-0.000000007-0.000000007 0.000025799
 0.000025799-0.000009572 0.000075547
      58
 0.000000151 0.000000151-0.000000275 0.000001162-0.000001182-0.000001182
 0.000003876 0.000003876 0.000146323 0.000007740 0.000007740-0.000000520
 0.000000989 0.000000989 0.000017527 0.000017527-0.000009949-0.000001423
-0.000001423 0.000038286-0.000071088 0.000020550 0.000020550 0.000068849
 0.000036042 0.000036042 0.000028832 0.000000429 0.000000429 0.000032551
 0.000032551-0.000010664 0.000095574
      59
 0.000000176 0.000000176-0.000000328 0.000004494-0.000000418-0.000000418
 0.000003943 0.000003943 0.000175660 0.000009612 0.000009612-0.000000547
 0.000001498 0.000001498 0.000021526 0.000021526-0.000001406-0.000001406
-0.000011554 0.000043801-0.000076162 0.000024392 0.000024392 0.000082800
 0.000044617 0.000044617 0.000036246 0.000001146 0.000001146 0.000038814
 0.000038814-0.000010952 0.000114794
      60
 0.000000197 0.000000197-0.000000370 0.000009899 0.000000534 0.000000534
 0.000003889 0.000003889 0.000202057 0.000011470 0.000011470-0.000000521
 0.000002147 0.000002147 0.000025435 0.000025435-0.000001246-0.000001246
-0.000012661 0.000049332-0.000077633 0.000027749 0.000027749 0.000095654
 0.000052772 0.000052772 0.000043728 0.000002187 0.000002187 0.000044075
 0.000044075-0.000010345 0.000132119
      61
 0.000000211 0.000000211-0.000000396 0.000017746 0.000001603 0.000001603
 0.000003740 0.000003740 0.000224060 0.000013237 0.000013237-0.000000435
 0.000002931 0.000002931 0.000029112 0.000029112-0.000000943-0.000000943
-0.000013081 0.000054698-0.000075172 0.000030489 0.000030489 0.000059833
 0.000059833 0.000106934 0.000050959 0.000003582 0.000003582 0.000047835
 0.000047835-0.000008825 0.000146551
      62
 0.000000219 0.000000219-0.000000399 0.000028165 0.000002695 0.000002695
 0.000003533 0.000003533 0.000240572 0.000014837 0.000014837-0.000000284
 0.000003828 0.000003828 0.000032431 0.000032431-0.000000506-0.000000506
-0.000012639 0.000059837-0.000068838 0.000032555 0.000032555 0.000065046
 0.000065046 0.000116295 0.000057650 0.000005352 0.000005352 0.000049643
 0.000049643-0.000006434 0.000157210
      63
 0.000000219 0.000000219-0.000000373 0.000040930 0.000003700 0.000003700
 0.000003310 0.000003310 0.000250971 0.000016208 0.000016208-0.000000069
 0.000004798 0.000004798 0.000035284 0.000035284 0.000000058 0.000000058
-0.000011187 0.000064769-0.000058995 0.000033964 0.000033964 0.000067595
 0.000067595 0.000123505 0.000063556 0.000007510 0.000007510 0.000049111
 0.000049111-0.000003260 0.000163355
      64
 0.000000214 0.000000214-0.000000313 0.000055419 0.000004497 0.000004497
 0.000003117 0.000003117 0.000255169 0.000017302 0.000017302 0.000000205
 0.000005783 0.000005783 0.000037579 0.000037579 0.000069567 0.000000749
 0.000000749-0.000008609-0.000046216 0.000034802 0.000034802 0.000066652
 0.000066652 0.000128416 0.000068492 0.000010062 0.000010062 0.000045947
 0.000045947 0.000000577 0.000164417
      65
 0.000000204 0.000000204-0.000000212 0.000070686 0.000004961 0.000004961
 0.000003006 0.000003006 0.000253563 0.000018095 0.000018095 0.000000528
 0.000006704 0.000006704 0.000039247 0.000039247 0.000074335 0.000001586
 0.000001586-0.000004831-0.000031209 0.000035213 0.000035213 0.000061424
 0.000061424 0.000130948 0.000072341 0.000013007 0.000013007 0.000039971
 0.000039971 0.000004939 0.000160021
      66
 0.000000192 0.000000192-0.000000065 0.000085614 0.000004968 0.000004968
 0.000003025 0.000003025 0.000246893 0.000018589 0.000018589 0.000000887
 0.000007472 0.000007472 0.000079181 0.000040249 0.000040249 0.000002596
 0.000002596 0.000000179-0.000014738 0.000035384 0.000035384 0.000051216
 0.000051216 0.000131064 0.000075050 0.000016333 0.000016333 0.000031139
 0.000031139 0.000009670 0.000150009
      67
 0.000000180 0.000000180 0.000000131 0.000099109 0.000004414 0.000004414
 0.000003222 0.000003222 0.000236080 0.000018820 0.000018820 0.000001269
 0.000007987 0.000007987 0.000084191 0.000040608 0.000040608 0.000003792
 0.000003792 0.000006406 0.000002443 0.000035527 0.000035527 0.000035503
 0.000035503 0.000128765 0.000076638 0.000020012 0.000020012 0.000019561
 0.000019561 0.000014609 0.000134464
      68
 0.000000171 0.000000171 0.000000378 0.000110261 0.000003213 0.000003213
 0.000003638 0.000003638 0.000222073 0.000018850 0.000018850 0.000001657
 0.000008152 0.000008152 0.000089406 0.000040459 0.000040459 0.000013785
 0.000005123 0.000005123 0.000019637 0.000035861 0.000035861 0.000013995
 0.000013995 0.000124085 0.000077194 0.000023985 0.000023985 0.000005520
 0.000005520 0.000019596 0.000113721
      69
 0.000000167 0.000000167 0.000000679 0.000118438 0.000001317 0.000001317
 0.000004306 0.000004306 0.000205768 0.000018773 0.000018773 0.000002037
 0.000007882 0.000007882 0.000094803 0.000040079 0.000040079 0.000022205
 0.000006444 0.000006444 0.000036243 0.000036597 0.000036597-0.000013293
-0.000013293 0.000117095 0.000076875 0.000028147 0.000028147-0.000010512
-0.000010512 0.000024473 0.000088376
      70
 0.000000171 0.000000171 0.000001030 0.000123317-0.000001281-0.000001281
 0.000005243 0.000005243 0.000187975 0.000018704 0.000018704 0.000002397
 0.000007115 0.000007115 0.000100279 0.000039841 0.000039841 0.000031512
 0.000007555 0.000007555 0.000051784 0.000037922 0.000037922-0.000045983
-0.000045983 0.000107924 0.000032318 0.000032318 0.000075891-0.000027845
-0.000027845 0.000029095 0.000059284
      71
 0.000000184 0.000000184 0.000001427 0.000124869-0.000004532-0.000004532
 0.000006455 0.000006455 0.000169423 0.000018776 0.000018776 0.000002729
 0.000005827 0.000005827 0.000105657 0.000040105 0.000040105 0.000041510
 0.000008310 0.000008310 0.000065918 0.000039986 0.000039986-0.000083288
-0.000083288 0.000096778 0.000036195 0.000036195 0.000074488-0.000045528
-0.000045528 0.000033335 0.000027548
      72
 0.000000207 0.000000207 0.000001859 0.000123316-0.000008332-0.000008332
 0.000007926 0.000007926 0.000150770 0.000019120 0.000019120 0.000003032
 0.000004044 0.000004044 0.000110693 0.000041122 0.000041122 0.000051973
 0.000008690 0.000008690 0.000078438 0.000042892 0.000042892-0.000123980
-0.000123980 0.000083968 0.000039229 0.000039229 0.000072923-0.000062248
-0.000062248 0.000037094-0.000005505
      73
 0.000000241 0.000000241 0.000002314 0.000119080-0.000012511-0.000012511
 0.000009624 0.000009624 0.000132615 0.000019861 0.000019861 0.000003311
 0.000001848 0.000001848 0.000115107 0.000043026 0.000043026 0.000062647
 0.000008808 0.000008808 0.000089266 0.000046688 0.000046688-0.000166377
-0.000166377 0.000069934 0.000040365 0.000040365 0.000071435-0.000076080
-0.000076080 0.000040305-0.000038351
      74
 0.000000284 0.000000284 0.000002774 0.000112737-0.000016835-0.000016835
 0.000011500 0.000011500 0.000115493 0.000021100 0.000021100 0.000003580
-0.000000611-0.000000611 0.000118616 0.000045864 0.000045864 0.000073265
 0.000008854 0.000008854 0.000098437 0.000051362 0.000051362-0.000208341
-0.000208341 0.000055269 0.000037339 0.000037339-0.000083821-0.000083821
 0.000070224 0.000042937-0.000069314
      75
 0.000000336 0.000000336 0.000003217 0.000104964-0.000021007-0.000021007
 0.000013491 0.000013491 0.000099856 0.000022903 0.000022903 0.000003859
-0.000003119-0.000003119 0.000120980 0.000049630 0.000049630 0.000083549
 0.000009050 0.000009050 0.000106076 0.000056840 0.000056840-0.000247308
-0.000247308 0.000040728 0.000025092 0.000025092-0.000079435-0.000079435
 0.000069420 0.000044993-0.000096610
      76
 0.000000393 0.000000393 0.000003622 0.000096507-0.000024671-0.000024671
 0.000015520 0.000015520 0.000086059 0.000025297 0.000025297 0.000004180
-0.000005397-0.000005397 0.000122040 0.000054283 0.000054283 0.000093224
 0.000009603 0.000009603 0.000112369 0.000062987 0.000062987-0.000280331
-0.000280331 0.000027238-0.000005183-0.000005183-0.000053146-0.000053146
 0.000069073 0.000046508-0.000118411
      77
 0.000000452 0.000000452 0.000003966 0.000088135-0.000027426-0.000027426
 0.000017506 0.000017506 0.000074332 0.000028264 0.000028264 0.000004580
-0.000007115-0.000007115 0.000121754 0.000059759 0.000059759 0.000102029
 0.000010686 0.000010686 0.000117542 0.000069611 0.000069611-0.000304153
-0.000304153 0.000015889-0.000052220-0.000052220-0.000005297-0.000005297
 0.000069139 0.000047532-0.000132898
      78
 0.000000511 0.000000511 0.000004232 0.000080615-0.000028835-0.000028835
 0.000019365 0.000019365 0.000064776 0.000031740 0.000031740 0.000005103
-0.000007909-0.000007909 0.000120213 0.000065966 0.000065966 0.000109721
 0.000012419 0.000012419 0.000121828 0.000076469 0.000076469-0.000315306
-0.000315306 0.000007908-0.000088190-0.000088190 0.000037110 0.000037110
 0.000069484 0.000048122-0.000138331
      79
 0.000000566 0.000000566 0.000004405 0.000074677-0.000028444-0.000028444
 0.000021020 0.000021020 0.000057361 0.000035630 0.000035630 0.000005798
-0.000007396-0.000007396 0.000117650 0.000072779 0.000072779 0.000116083
 0.000014862 0.000014862 0.000125444 0.000083275 0.000083275-0.000310241
-0.000310241 0.000004616-0.000099698-0.000099698 0.000061380 0.000061380
 0.000069900 0.000048323-0.000133115
      80
 0.000000614 0.000000614 0.000004475 0.000070989-0.000025807-0.000025807
 0.000022399 0.000022399 0.000051937 0.000039807 0.000039807 0.000006718
-0.000005199-0.000005199 0.000114427 0.000080045 0.000080045 0.000120938
 0.000128569 0.000018015 0.000018015 0.000089714 0.000089714-0.000285486
-0.000285486 0.000007365-0.000092938-0.000092938 0.000074252 0.000074252
 0.000070132 0.000048160-0.000115862
      81
 0.000000652 0.000000652 0.000004442 0.000070125-0.000020503-0.000020503
 0.000023446 0.000023446 0.000048255 0.000044130 0.000044130 0.000007914
-0.000000974-0.000000974 0.000111019 0.000087570 0.000087570 0.000124146
 0.000131325 0.000021820 0.000021820 0.000095452 0.000095452-0.000237827
-0.000237827 0.000017449-0.000073195-0.000073195 0.000081403 0.000081403
 0.000069919 0.000047628-0.000085460
      82
 0.000000678 0.000000678 0.000004311 0.000072549-0.000012163-0.000012163
 0.000024118 0.000024118 0.000045995 0.000048454 0.000048454 0.000009436
 0.000005573 0.000005573 0.000107985 0.000095125 0.000095125 0.000125616
 0.000133761 0.000026168 0.000026168 0.000100152 0.000100152-0.000164509
-0.000164509 0.000036012-0.000042784-0.000042784 0.000085379 0.000085379
 0.000069036 0.000046702-0.000041120
      83
 0.000000690 0.000000690 0.000004094 0.000078586-0.000000494-0.000000494
 0.000024390 0.000024390 0.000044795 0.000052638 0.000052638 0.000011324
 0.000014666 0.000014666 0.000105938 0.000102443 0.000102443 0.000125303
 0.000135847 0.000030914 0.000030914 0.000103495 0.000103495-0.000063426
-0.000063426 0.000063950-0.000002699-0.000002699 0.000087263 0.000087263
 0.000067330 0.000045341 0.000017569
      84
 0.000000687 0.000000687 0.000003807 0.000088415 0.000014699 0.000014699
 0.000024256 0.000024256 0.000044280 0.000056554 0.000056554 0.000013611
 0.000026448 0.000026448 0.000105508 0.000109230 0.000109230 0.000123216
 0.000137470 0.000035886 0.000035886 0.000105194 0.000105194 0.000066699
 0.000066699 0.000101830 0.000046523 0.000046523 0.000087542 0.000087542
 0.000064747 0.000043503 0.000090606
      85
 0.000000669 0.000000669 0.000003470 0.000102060 0.000033497 0.000033497
 0.000023725 0.000023725 0.000044086 0.000060093 0.000060093 0.000016315
 0.000040969 0.000040969 0.000107307 0.000115165 0.000115165 0.000119412
 0.000138440 0.000040895 0.000040895 0.000105014 0.000105014 0.000226170
 0.000226170 0.000149828 0.000104459 0.000104459 0.000086457 0.000086457
 0.000061331 0.000041168 0.000177551
      86
 0.000000639 0.000000639 0.000003102 0.000119383 0.000055846 0.000055846
 0.000022823 0.000022823 0.000043884 0.000063166 0.000063166 0.000019439
 0.000058189 0.000058189 0.000111893 0.000119922 0.000119922 0.000113999
 0.000138504 0.000045742 0.000045742 0.000102798 0.000102798 0.000414232
 0.000414232 0.000207707 0.000170643 0.000170643 0.000084143 0.000084143
 0.000057214 0.000038346 0.000277516
      87
 0.000000596 0.000000596 0.000002721 0.000140101 0.000081557 0.000081557
 0.000021587 0.000021587 0.000043397 0.000065709 0.000065709 0.000022967
 0.000077980 0.000077980 0.000119730 0.000123180 0.000123180 0.000137362
 0.000107133 0.000050211 0.000050211 0.000098485 0.000098485 0.000629026
 0.000629026 0.000274810 0.000244471 0.000244471 0.000080689 0.000080689
 0.000052585 0.000035088 0.000389170
      88
 0.000000544 0.000000544 0.000002344 0.000163792 0.000110294 0.000110294
 0.000020065 0.000020065 0.000042407 0.000067682 0.000067682 0.000026863
 0.000100137 0.000100137 0.000131151 0.000124642 0.000124642 0.000134705
 0.000099009 0.000054058 0.000054058 0.000092144 0.000092144 0.000867609
 0.000867609 0.000350090 0.000325141 0.000325141 0.000076172 0.000076172
 0.000047660 0.000031484 0.000510757
      89
 0.000000485 0.000000485 0.000001985 0.000189919 0.000141588 0.000141588
 0.000018311 0.000018311 0.000040769 0.000069074 0.000069074 0.000031073
 0.000124386 0.000124386 0.000146321 0.000124053 0.000124053 0.000130244
 0.000089860 0.000056974 0.000056974 0.000084024 0.000084024 0.001126013
 0.001126013 0.000432156 0.000411595 0.000411595 0.000070682 0.000070682
 0.000042647 0.000027657 0.000640131
      90
 0.000000422 0.000000422 0.000001650 0.000217855 0.000174837 0.000174837
 0.000016383 0.000016383 0.000038408 0.000069903 0.000069903 0.000035523
 0.000150406 0.000150406 0.000165209 0.000123757 0.000121203 0.000121203
 0.000079950 0.000058500 0.000058500 0.000074649 0.000074649 0.001399342
 0.001399342 0.000519320 0.000502491 0.000502491 0.000064329 0.000064329
 0.000037722 0.000023746 0.000774809
      91
 0.000000358 0.000000358 0.000001347 0.000246902 0.000209334 0.000209334
 0.000014343 0.000014343 0.000035321 0.000070225 0.000070225 0.000040124
 0.000177836 0.000177836 0.000187560 0.000115125 0.000115933 0.000115933
 0.000069562 0.000057810 0.000057810 0.000065055 0.000065055 0.001681906
 0.001681906 0.000609666 0.000596191 0.000596191 0.000057258 0.000057258
 0.000033009 0.000019889 0.000912028
      92
 0.000000296 0.000000296 0.000001077 0.000276320 0.000244280 0.000244280
 0.000012248 0.000012248 0.000031571 0.000070132 0.000070132 0.000044772
 0.000206289 0.000206289 0.000212889 0.000104377 0.000108137 0.000108137
 0.000058993 0.000053483 0.000053483 0.000057027 0.000057027 0.001967374
 0.001967374 0.000701116 0.000690787 0.000690787 0.000049653 0.000049653
 0.000028573 0.000016214 0.001048829
      93
 0.000000237 0.000000237 0.000000841 0.000305349 0.000278816 0.000278816
 0.000010157 0.000010157 0.000027283 0.000069753 0.000069753 0.000049355
 0.000235351 0.000235351 0.000240476 0.000091713 0.000097769 0.000097769
 0.000048544 0.000044732 0.000044732 0.000051871 0.000051871 0.002248951
 0.002248951 0.000791497 0.000784143 0.000784143 0.000041738 0.000041738
 0.000024412 0.000012821 0.001182134
      94
 0.000000182 0.000000182 0.000000637 0.000333230 0.000312050 0.000312050
 0.000008127 0.000008127 0.000022635 0.000069254 0.000069254 0.000053755
 0.000264567 0.000264567 0.000269392 0.000077522 0.000084924 0.000084924
 0.000038509 0.000033970 0.000033970 0.000047788 0.000047788 0.002519579
 0.002519579 0.000878601 0.000873971 0.000873971 0.000033773 0.000033773
 0.000020467 0.000009784 0.001308841
      95
 0.000000134 0.000000134 0.000000464 0.000359220 0.000343089 0.000343089
 0.000006212 0.000006212 0.000017848 0.000068817 0.000068817 0.000057856
 0.000293412 0.000293412 0.000298524 0.000062378 0.000069990 0.000069990
 0.000029171 0.000024264 0.000024264 0.000042296 0.000042296 0.002772164
 0.002772164 0.000960242 0.000957915 0.000957915 0.000026045 0.000026045
 0.000016649 0.000007145 0.001425917
      96
 0.000000093 0.000000093 0.000000320 0.000382614 0.000371070 0.000371070
 0.000004468 0.000004468 0.000013170 0.000068611 0.000068611 0.000061545
 0.000321237 0.000321237 0.000326626 0.000047025 0.000053808 0.000053808
 0.000020789 0.000016606 0.000016606 0.000034833 0.000034833 0.002999810
 0.002999810 0.001034285 0.001033658 0.001033658 0.000018852 0.000018852
 0.000012887 0.000004925 0.001530495
      97
 0.000000060 0.000000060 0.000000204 0.000402763 0.000395194 0.000395194
 0.000002947 0.000002947 0.000008865 0.000068748 0.000068748 0.000064718
 0.000347201 0.000347201 0.000352368 0.000032347 0.000037648 0.000037648
 0.000013596 0.000010794 0.000010794 0.000025957 0.000025957 0.003196079
 0.003196079 0.001098665 0.001099019 0.001099019 0.000012487 0.000012487
 0.000009188 0.000003129 0.001619965
      98
 0.000000033 0.000000033 0.000000114 0.000419092 0.000414755 0.000414755
 0.000001699 0.000001699 0.000005189 0.000069225 0.000069225 0.000067285
 0.000370207 0.000370207 0.000374387 0.000019329 0.000022929 0.000022929
 0.000007787 0.000006349 0.000006349 0.000016741 0.000016741 0.003355249
 0.003355249 0.001151409 0.001152058 0.001152058 0.000007220 0.000007220
 0.000005705 0.000001749 0.001692062
      99
 0.000000015 0.000000015 0.000000051 0.000431121 0.000429168 0.000429168
 0.000000771 0.000000771 0.000002375 0.000069894 0.000069894 0.000069174
 0.000388841 0.000388841 0.000391358 0.000008999 0.000010942 0.000010942
 0.000003523 0.000003000 0.000003000 0.000008576 0.000008576 0.003472559
 0.003472559 0.001190693 0.001191162 0.001191162 0.000003279 0.000003279
 0.000002752 0.000000774 0.001744935
     100
 0.000000004 0.000000004 0.000000013 0.000438489 0.000437997 0.000437997
 0.000000198 0.000000198 0.000000607 0.000070483 0.000070483 0.000070330
 0.000401330 0.000401330 0.000402108 0.000002319 0.000002892 0.000002892
 0.000000917 0.000000814 0.000000814 0.000002916 0.000002916 0.003544429
 0.003544429 0.001214975 0.001215124 0.001215124 0.000000842 0.000000842
 0.000000736 0.000000193 0.001777220
     101
-0.000000000 0.000000000-0.000000000 0.000440971 0.000440971 0.000440971
 0.000000004 0.000000004 0.000000004 0.000070719 0.000070719 0.000070719
 0.000405795 0.000405795 0.000405795 0.000000003 0.000000003 0.000000003
 0.000000041 0.000000041 0.000000041 0.000000887 0.000000887 0.003568637
 0.003568637 0.001223196 0.001223196 0.001223196 0.000000017 0.000000017
 0.000000017 0.000000001 0.001788076
     102
-0.000000048-0.000000048 0.000000123 0.000437902 0.000436893 0.000436893
-0.000000273-0.000000273 0.000001884 0.000070486 0.000070486 0.000070005
 0.000398534 0.000401148 0.000401148 0.000009937 0.000000368 0.000000368
 0.000000784 0.000000784 0.000001821 0.000000819 0.000006225 0.003538095
 0.003534754 0.001212054 0.001212054 0.001213031 0.000000128 0.000000128
 0.000002962 0.000000260 0.001773629
     103
-0.000000186-0.000000186 0.000000481 0.000428821 0.000424856 0.000424856
-0.000001060-0.000001060 0.000007430 0.000069745 0.000069745 0.000067910
 0.000379270 0.000388533 0.000388533 0.000038835 0.000000386 0.000000386
 0.000003063 0.000003063 0.000007056 0.000000636 0.000019796 0.003447935
 0.003435173 0.001179224 0.001179224 0.001182981 0.000000435 0.000000435
 0.000011656 0.000001064 0.001730986
     104
-0.000000393-0.000000393 0.000001043 0.000414090 0.000405436 0.000405436
-0.000002236-0.000002236 0.000016360 0.000068398 0.000068398 0.000064573
 0.000353170 0.000370088 0.000370088 0.000084152-0.000001358-0.000001358
 0.000006998 0.000006998 0.000015441 0.000000394 0.000036653 0.003302457
 0.003275843 0.001126429 0.001126429 0.001134341 0.000000878 0.000000878
 0.000025680 0.000002495 0.001662198
     105
-0.000000642-0.000000642 0.000001760 0.000394291 0.000379546 0.000379546
-0.000003612-0.000003612 0.000028222 0.000066351 0.000066351 0.000060210
 0.000324487 0.000347096 0.000347096 0.000142140-0.000004932-0.000004932
 0.000012617 0.000012617 0.000026490 0.000000173 0.000052889 0.003108501
 0.003065906 0.001056343 0.001056343 0.001069180 0.000001406 0.000001406
 0.000044366 0.000004666 0.001570524
     106
-0.000000898-0.000000898 0.000002574 0.000370186 0.000348372 0.000348372
-0.000004958-0.000004958 0.000042411 0.000063567 0.000063566 0.000055097
 0.000295525 0.000320366 0.000320366 0.000208426-0.000008992-0.000008992
 0.000019250 0.000019250 0.000039574 0.000000066 0.000066639 0.002874988
 0.002816723 0.000972341 0.000972341 0.000990204 0.000002028 0.000002028
 0.000066831 0.000007703 0.001460218
     107
-0.000001125-0.000001125 0.000003423 0.000342672 0.000313296 0.000313296
-0.000006032-0.000006032 0.000058200 0.000060084 0.000060084 0.000049544
 0.000267258 0.000290727 0.000290727 0.000278590-0.000010663-0.000010663
 0.000053958 0.000000155 0.000024739 0.000024739 0.000077427 0.002612326
 0.002540810 0.000878219 0.000878219 0.000900594 0.000002828 0.000002828
 0.000092028 0.000011712 0.001336233
     108
-0.000001291-0.000001291 0.000004249 0.000312727 0.000275797 0.000275797
-0.000006612-0.000006612 0.000074767 0.000056010 0.000056010 0.000043871
 0.000240066 0.000259146 0.000259146 0.000348608-0.000007476-0.000007476
 0.000000495 0.000068859 0.000027120 0.000027120 0.000085399 0.002331742
 0.002250842 0.000777924 0.000777924 0.000803812 0.000003956 0.000003956
 0.000118796 0.000016743 0.001203905
     109
-0.000001371-0.000001371 0.000005003 0.000281354 0.000237358 0.000237358
-0.000006524-0.000006525 0.000091239 0.000051499 0.000051499 0.000038379
 0.000214133 0.000226674 0.000226674 0.000415123-0.000000316-0.000000316
 0.000001104 0.000083491 0.000027496 0.000027496 0.000090890 0.002044574
 0.001958828 0.000675314 0.000675314 0.000703413 0.000005583 0.000005583
 0.000145918 0.000022760 0.001068603
     110
-0.000001351-0.000001351 0.000005654 0.000249525 0.000199380 0.000199380
-0.000005674-0.000005674 0.000106734 0.000046726 0.000046726 0.000033332
 0.000189612 0.000194376 0.000194376 0.000475548 0.000008662 0.000008662
 0.000001949 0.000097118 0.000027935 0.000027935 0.000094242 0.001761593
 0.001675486 0.000573958 0.000573958 0.000602855 0.000007843 0.000007843
 0.000172173 0.000029616 0.000935393
     111
-0.000001230-0.000001230 0.000006182 0.000218138 0.000163096 0.000163096
-0.000004056-0.000004056 0.000120419 0.000041861 0.000041861 0.000028936
 0.000166664 0.000528025 0.000163261 0.000163261 0.000018176 0.000018176
 0.000002946 0.000109097 0.000029328 0.000029328 0.000095752 0.001492400
 0.001409822 0.000476984 0.000476984 0.000505337 0.000010774 0.000010774
 0.000196403 0.000037050 0.000808745
     112
-0.000001018-0.000001018 0.000006586 0.000187973 0.000129512 0.000129512
-0.000001757-0.000001757 0.000131566 0.000037050 0.000037050 0.000025329
 0.000145458 0.000571319 0.000134224 0.000134224 0.000027561 0.000027561
 0.000003972 0.000118918 0.000095664 0.000031696 0.000031696 0.001244934
 0.001168862 0.000386973 0.000386973 0.000413652 0.000014277 0.000014277
 0.000217574 0.000044692 0.000692289
     113
-0.000000738-0.000000738 0.000006875 0.000159672 0.000099367 0.000099367
 0.000001051 0.000001051 0.000139623 0.000032407 0.000032407 0.000022584
 0.000126157 0.000604673 0.000107988 0.000107988 0.000036318 0.000036318
 0.000004872 0.000126230 0.000094193 0.000034708 0.000034708 0.001025134
 0.000957523 0.000305900 0.000305900 0.000330092 0.000018100 0.000018100
 0.000234869 0.000052095 0.000588653
     114
-0.000000416-0.000000416 0.000007065 0.000133724 0.000073118 0.000073118
 0.000004136 0.000004136 0.000144276 0.000028002 0.000028002 0.000020706
 0.000108912 0.000627669 0.000085064 0.000085064 0.000005485 0.000043986
 0.000043986 0.000130855 0.000091537 0.000037921 0.000037921 0.000836765
 0.000778583 0.000235128 0.000235128 0.000256363 0.000021839 0.000021839
 0.000247768 0.000058794 0.000499386
     115
-0.000000087-0.000000087 0.000007180 0.000110472 0.000050943 0.000050943
 0.000007232 0.000007232 0.000145496 0.000023871 0.000023871 0.000019648
 0.000093856 0.000065721 0.000065721 0.000640123 0.000005663 0.000050156
 0.000050156 0.000087893 0.000132787 0.000040880 0.000040880 0.000681410
 0.000632747 0.000175438 0.000175438 0.000193557 0.000024966 0.000024965
 0.000256137 0.000064359 0.000424969
     116
 0.000000217 0.000000217 0.000007239 0.000090128 0.000032775 0.000032775
 0.000010076 0.000010076 0.000143563 0.000020019 0.000020019 0.000019324
 0.000081111 0.000049983 0.000049983 0.000642026 0.000005295 0.000054529
 0.000054529 0.000083466 0.000132179 0.000043170 0.000043170 0.000558626
 0.000518826 0.000127094 0.000127094 0.000142146 0.000026870 0.000026870
 0.000260258 0.000068470 0.000364916
     117
 0.000000469 0.000000469 0.000007265 0.000072788 0.000018347 0.000018347
 0.000012438 0.000012438 0.000139041 0.000016434 0.000016434 0.000019624
 0.000070789 0.000037646 0.000037646 0.000633536 0.000004325 0.000056969
 0.000056969 0.000078477 0.000129313 0.000044465 0.000044465 0.000466235
 0.000434031 0.000089922 0.000089922 0.000026923 0.000026923 0.000102012
 0.000260809 0.000070969 0.000317933
     118
 0.000000649 0.000000649 0.000007275 0.000058464 0.000007246 0.000007246
 0.000014144 0.000014144 0.000132719 0.000013097 0.000013097 0.000020430
 0.000062997 0.000028328 0.000028328 0.000615018 0.000002765 0.000057531
 0.000057531 0.000073160 0.000124565 0.000044550 0.000044550 0.000400714
 0.000374380 0.000063369 0.000063369 0.000024581 0.000024581 0.000072516
 0.000258742 0.000071897 0.000282140
     119
 0.000000744 0.000000744 0.000007281 0.000047106-0.000001021-0.000001021
 0.000015102 0.000015102 0.000125498 0.000009995 0.000009995 0.000021629
 0.000057845 0.000021533 0.000021533 0.000587106 0.000000698 0.000056456
 0.000056456 0.000067763 0.000118354 0.000043341 0.000043341 0.000357645
 0.000335183 0.000046481 0.000046481 0.000019552 0.000019552 0.000052592
 0.000255121 0.000071497 0.000255303
     120
 0.000000758 0.000000758 0.000007292 0.000038619-0.000006966-0.000006966
 0.000015298 0.000015298 0.000118264 0.000007133 0.000007133 0.000023122
 0.000055434 0.000016726 0.000016726 0.000550774-0.000001722 0.000054141
 0.000054141 0.000062534 0.000111113 0.000040892 0.000040892 0.000332182
 0.000311529 0.000037787 0.000037787 0.000012065 0.000012065 0.000040865
 0.000250951 0.000070185 0.000235084
     121
 0.000000701 0.000000701 0.000007312 0.000032880-0.000011070-0.000011070
 0.000014802 0.000014802 0.000111768 0.000004535 0.000004535 0.000024823
 0.000055855 0.000013409 0.000013409 0.000507365-0.000004292 0.000051077
 0.000051077 0.000057712 0.000103250 0.000037381 0.000037381 0.000319474
 0.000298717 0.000035161 0.000035161 0.000003108 0.000003109 0.000035782
 0.000247040 0.000068499 0.000219257
     122
 0.000000595 0.000000595 0.000007340 0.000029741-0.000013736-0.000013736
 0.000013746 0.000013746 0.000106537 0.000002249 0.000002249 0.000026667
 0.000059174 0.000011174 0.000011174 0.000458563-0.000006771 0.000047783
 0.000047783 0.000053513 0.000095139 0.000033095 0.000033095 0.000315040
 0.000292590 0.000035985 0.000035985-0.000005652-0.000005652 0.000035743
 0.000243940 0.000067018 0.000205892
     123
 0.000000466 0.000000466 0.000007368 0.000029028-0.000015271-0.000015271
 0.000012308 0.000012308 0.000102838 0.000000341 0.000000341 0.000028598
 0.000065408 0.000009738 0.000009738-0.000008915 0.000406303 0.000044745
 0.000044745 0.000050114 0.000087114 0.000028395 0.000028395 0.000315035
 0.000289748 0.000037793 0.000037793-0.000012478-0.000012477 0.000039214
 0.000241953 0.000066299 0.000193484
     124
 0.000000342 0.000000342 0.000007384 0.000030533-0.000015869-0.000015869
 0.000010688 0.000010688 0.000100689-0.000001107-0.000001107 0.000074504
 0.000030569 0.000008947 0.000008946-0.000010502 0.000352625 0.000042355
 0.000042355 0.000047642 0.000079477 0.000023681 0.000023681 0.000316426
 0.000287654 0.000038990 0.000038990-0.000016277-0.000016277 0.000044824
 0.000241185 0.000066799 0.000181017
     125
 0.000000252 0.000000252 0.000007376 0.000034004-0.000015628-0.000015628
 0.000009080 0.000009080 0.000099908-0.000002004-0.000002004 0.000086312
 0.000032531 0.000008758 0.000008758-0.000011358 0.000299508 0.000040879
 0.000040879 0.000046160 0.000072511 0.000019353 0.000019353 0.000317066
 0.000039044 0.000039044 0.000284656-0.000016825-0.000016825 0.000051424
 0.000241612 0.000068837 0.000167978
     126
 0.000000217 0.000000217 0.000007327 0.000039140-0.000014568-0.000014568
 0.000007652 0.000007652 0.000100174-0.000002262-0.000002262 0.000100562
 0.000034434 0.000009209 0.000009209-0.000011380 0.000040439 0.000040439
 0.000248725 0.000045669 0.000066479 0.000015774 0.000015774 0.000315672
 0.000038157 0.000038157 0.000279933-0.000014482-0.000014482 0.000058130
 0.000243143 0.000072566 0.000154310
     127
 0.000000249 0.000000249 0.000007224 0.000045586-0.000012663-0.000012663
 0.000006530 0.000006530-0.000001794-0.000001794 0.000101096 0.000116843
 0.000036224 0.000010377 0.000010377-0.000010551 0.000041016 0.000041016
 0.000201730 0.000046115 0.000061630 0.000013242 0.000013242 0.000311739
 0.000036833 0.000036833-0.000009812-0.000009832 0.000273372 0.000064332
 0.000077971 0.000245659 0.000140325
     128
 0.000000352 0.000000352 0.000007058 0.000052939-0.000009879-0.000009879
 0.000005792 0.000005792-0.000000523-0.000000523 0.000102266 0.000134600
 0.000037841 0.000012340 0.000012340-0.000008940 0.000042472 0.000042472
 0.000159610 0.000047393 0.000058188 0.000011969 0.000011969 0.000305388
 0.000035602 0.000035602-0.000003469-0.000003469 0.000265525 0.000069692
 0.000084884 0.000249032 0.000126590
     129
 0.000000518 0.000000518 0.000006825 0.000060760-0.000006208-0.000006208
 0.000005462 0.000005462 0.000001618 0.000001618 0.000103318 0.000153134
 0.000039230 0.000015156 0.000015156-0.000006698 0.000044585 0.000044585
 0.000123075 0.000049370 0.000056347 0.000012068 0.000012068 0.000297186
 0.000034892 0.000034892 0.000004071 0.000004071 0.000257231 0.000074123
 0.000093018 0.000253119 0.000113804
     130
 0.000000730 0.000000730 0.000006528 0.000068596-0.000001687-0.000001687
 0.000005517 0.000005517 0.000004685 0.000004685 0.000103970 0.000171631
 0.000040343 0.000018844 0.000018844-0.000004041 0.000047094 0.000047094
 0.000092491 0.000051900 0.000056260 0.000013547 0.000013547 0.000287948
 0.000034986 0.000034986 0.000012306 0.000012306 0.000249636 0.000077767
 0.000101999 0.000257755 0.000102679
     131
 0.000000966 0.000000966 0.000006175 0.000076017 0.000003583 0.000003583
 0.000005896 0.000005896 0.000008727 0.000008727 0.000104066 0.000189191
 0.000041152 0.000023389 0.000023389-0.000001223 0.000049749 0.000049749
 0.000067928 0.000054848 0.000058027 0.000016312 0.000016312 0.000278547
 0.000036024 0.000036024 0.000020786 0.000020786 0.000243910 0.000080953
 0.000111415 0.000262741 0.000093838
     132
 0.000001197 0.000001197 0.000005781 0.000082648 0.000009438 0.000009438
 0.000006515 0.000006515 0.000013790 0.000013790 0.000103615 0.000204881
 0.000041654 0.000028750 0.000028750 0.000001496 0.000052353 0.000052353
 0.000058098 0.000049215 0.000061691 0.000020170 0.000020170 0.000269757
 0.000038018 0.000038018 0.000029086 0.000029086 0.000241095 0.000084162
 0.000120854 0.000267848 0.000087755
     133
 0.000001399 0.000001399 0.000005364 0.000088205 0.000015662 0.000015662
 0.000007280 0.000007280 0.000019921 0.000019921 0.000102807 0.000217792
 0.000041875 0.000034878 0.000034878 0.000003878 0.000054803 0.000054803
 0.000061572 0.000035986 0.000067227 0.000024834 0.000024834 0.000262132
 0.000040876 0.000040876 0.000036809 0.000036809 0.000241974 0.000087975
 0.000129947 0.000272812 0.000084710
     134
 0.000001550 0.000001550 0.000004941 0.000092527 0.000022010 0.000022010
 0.000008103 0.000008103 0.000027176 0.000027176 0.000102024 0.000227104
 0.000041876 0.000041734 0.000041734 0.000005739 0.000057108 0.000057108
 0.000065229 0.000027726 0.000074532 0.000029935 0.000029935 0.000255945
 0.000044428 0.000044428 0.000043601 0.000043601 0.000246975 0.000093019
 0.000138404 0.000277356 0.000084803
     135
 0.000001635 0.000001635 0.000004531 0.000095588 0.000028225 0.000028225
 0.000008912 0.000008912 0.000035628 0.000035628 0.000101818 0.000232147
 0.000041746 0.000049292 0.000049292 0.000006972 0.000059396 0.000059396
 0.000069062 0.000023810 0.000083422 0.000035042 0.000035042 0.000251176
 0.000048455 0.000048455 0.000049182 0.000049182 0.000099909 0.000256125
 0.000146034 0.000281191 0.000087975
     136
 0.000001650 0.000001650 0.000004147 0.000097496 0.000034073 0.000034073
 0.000009660 0.000009660 0.000045369 0.000045369 0.000102872 0.000232463
 0.000041597 0.000057539 0.000057539 0.000007557 0.000061895 0.000061896
 0.000073096 0.000023532 0.000093624 0.000039691 0.000039691 0.000247551
 0.000052711 0.000052711 0.000053367 0.000053367 0.000109180 0.000269056
 0.000152772 0.000284026 0.000094062
     137
 0.000001598 0.000001598 0.000003800 0.000098475 0.000039357 0.000039357
 0.000010331 0.000010331 0.000056517 0.000056517 0.000105933 0.000227849
 0.000041553 0.000066456 0.000066456 0.000007565 0.000064899 0.000064899
 0.000077371 0.000026145 0.000043436 0.000043436 0.000104782 0.000244610
 0.000056948 0.000056948 0.000056079 0.000056079 0.000121223 0.000285059
 0.000158678 0.000285582 0.000102844
     138
 0.000001493 0.000001493 0.000003493 0.000098824 0.000043940 0.000043940
 0.000010931 0.000010931 0.000069200 0.000069200 0.000111729 0.000218393
 0.000041734 0.000075990 0.000075990 0.000007143 0.000068715 0.000068715
 0.000081939 0.000030890 0.000045903 0.000045903 0.000116471 0.000241803
 0.000060938 0.000060938 0.000057347 0.000057347 0.000136222 0.000303179
 0.000163935 0.000285601 0.000114077
     139
 0.000001352 0.000001352 0.000003227 0.000098876 0.000047749 0.000047749
 0.000011493 0.000011493 0.000083546 0.000083546 0.000120883 0.000204477
 0.000042242 0.000086025 0.000086025 0.000006499 0.000073608 0.000073608
 0.000086852 0.000046845 0.000046845 0.000037022 0.000128224 0.000064492
 0.000064492 0.000238580 0.000057299 0.000057299 0.000154097 0.000322339
 0.000168832 0.000283875 0.000127504
     140
 0.000001200 0.000001200 0.000002995 0.000098947 0.000050780 0.000050780
 0.000012059 0.000012059 0.000099641 0.000099641 0.000133817 0.000186749
 0.000043147 0.000096358 0.000096357 0.000005870 0.000079749 0.000079749
 0.000046191 0.000046191 0.000092172 0.000043842 0.000139569 0.000067469
 0.000067469 0.000234478 0.000056132 0.000056132 0.000174461 0.000341475
 0.000173740 0.000280284 0.000142829
     141
 0.000001057 0.000001057 0.000002788 0.000099297 0.000053081 0.000053081
 0.000012676 0.000012676 0.000117487 0.000117487 0.000150676 0.000044473
 0.000166080 0.000106687 0.000106687 0.000005490 0.000087176 0.000087176
 0.000044066 0.000044066 0.000097974 0.000050721 0.000150079 0.000069785
 0.000069785 0.000229175 0.000054095 0.000054095 0.000196593 0.000359657
 0.000179084 0.000274817 0.000159695
     142
 0.000000943 0.000000943 0.000002597 0.000100099 0.000054749 0.000054749
 0.000013389 0.000013389 0.000136946 0.000136946 0.000171268 0.000046193
 0.000143479 0.000116629 0.000116629 0.000005557 0.000095788 0.000095788
 0.000040782 0.000040782 0.000057128 0.000104356 0.000159428 0.000071408
 0.000071408 0.000222516 0.000051454 0.000051454 0.000219441 0.000376196
 0.000185311 0.000267589 0.000177656
     143
 0.000000871 0.000000871 0.000002413 0.000101428 0.000055898 0.000055898
 0.000014229 0.000014229 0.000157693 0.000157693 0.000195040 0.000048231
 0.000120016 0.000125746 0.000125746 0.000006206 0.000105367 0.000105367
 0.000036795 0.000036795 0.000062659 0.000167437 0.000111441 0.000072343
 0.000072343 0.000214510 0.000048475 0.000048475 0.000241652 0.000390706
 0.000192869 0.000258813 0.000196177
     144
 0.000000848 0.000000848 0.000002230 0.000103257 0.000056654 0.000056654
 0.000015212 0.000015213 0.000179189 0.000179189 0.000221081 0.000050468
 0.000096739 0.000133585 0.000133585 0.000007484 0.000115625 0.000115625
 0.000032648 0.000032648 0.000067058 0.000174119 0.000072611 0.000072611
 0.000119343 0.000205301 0.000045397 0.000045397 0.000261646 0.000403122
 0.000202186 0.000248768 0.000214654
     145
 0.000000871 0.000000871 0.000002045 0.000105475 0.000057126 0.000057126
 0.000016334 0.000016334 0.000200684 0.000200684 0.000248169 0.000052760
 0.000074615 0.000139710 0.000139709 0.000009340 0.000126282 0.000126282
 0.000028886 0.000028886 0.000070227 0.000072227 0.000072227 0.000179693
 0.000128115 0.000195117 0.000042425 0.000042425 0.000277739 0.000413671
 0.000213660 0.000237756 0.000232442
     146
 0.000000931 0.000000931 0.000001863 0.000107904 0.000057409 0.000057409
 0.000017556 0.000017556 0.000221260 0.000221260 0.000274853 0.000054953
 0.000054489 0.000143696 0.000143696 0.000011625 0.000137153 0.000137153
 0.000025976 0.000025976 0.000071200 0.000071200 0.000072229 0.000184583
 0.000137639 0.000184216 0.000039721 0.000039721 0.000288311 0.000227656
 0.000422790 0.000226101 0.000248886
     147
 0.000001015 0.000001015 0.000001690 0.000110326 0.000057568 0.000057568
 0.000018811 0.000018811 0.000239913 0.000239913 0.000299564 0.000056909
 0.000037072 0.000145057 0.000145057 0.000014105 0.000148277 0.000148277
 0.000024225 0.000024225 0.000069565 0.000069565 0.000073254 0.000189381
 0.000172837 0.000147525 0.000037401 0.000037401 0.000292012 0.000244494
 0.000430966 0.000214192 0.000263358
     148
 0.000001105 0.000001105 0.000001537 0.000112511 0.000057653 0.000057653
 0.000019993 0.000019993 0.000255650 0.000255650 0.000320750 0.000058517
 0.000022937 0.000016489 0.000142983 0.000142983 0.000160184 0.000160184
 0.000023681 0.000023681 0.000067455 0.000067455 0.000073582 0.000194722
 0.000161215 0.000157028 0.000035543 0.000035543 0.000288021 0.000264366
 0.000438491 0.000202629 0.000275284
     149
 0.000001183 0.000001183 0.000001417 0.000114248 0.000057692 0.000057692
 0.000020975 0.000020975 0.000267588 0.000267588 0.000337015 0.000059702
 0.000012527 0.000018475 0.000135537 0.000135537 0.000174681 0.000174681
 0.000024056 0.000024056 0.000065217 0.000065217 0.000073525 0.000200921
 0.000149852 0.000165093 0.000034194 0.000034194 0.000276579 0.000286863
 0.000445140 0.000192443 0.000284178
     150
 0.000001237 0.000001237 0.000001339 0.000115364 0.000057708 0.000057708
 0.000021629 0.000021629 0.000275040 0.000275040 0.000347251 0.000060423
 0.000006154 0.000019792 0.000116987 0.000116987 0.000197459 0.000197459
 0.000024731 0.000024731 0.000063452 0.000063452 0.000073360 0.000206994
 0.000140394 0.000170558 0.000033378 0.000033378 0.000261101 0.000308762
 0.000449998 0.000185188 0.000289669
     151
 0.000001256 0.000001256 0.000001313 0.000115749 0.000057712 0.000057712
 0.000021859 0.000021859 0.000277573 0.000277573 0.000350745 0.000060665
 0.000004009 0.000020254 0.000090634 0.000090634 0.000225220 0.000225220
 0.000025044 0.000025044 0.000062782 0.000062782 0.000073283 0.000209791
 0.000136418 0.000172499 0.000033105 0.000033105 0.000252696 0.000319262
 0.000451820 0.000182520 0.000291526
     152
 0.000001252 0.000001266 0.000001307 0.000115458 0.000057486 0.000057844
 0.000021728 0.000021708 0.000277127 0.000276743 0.000349859 0.000060666
 0.000007425 0.000020336 0.000090984 0.000090427 0.000225036 0.000221438
 0.000026027 0.000024899 0.000062836 0.000062746 0.000073145 0.000208307
 0.000136320 0.000172187 0.000033197 0.000033727 0.000252163 0.000318325
 0.000450188 0.000182078 0.000290912
     153
 0.000001241 0.000001295 0.000001292 0.000114591 0.000056814 0.000058232
 0.000021340 0.000021264 0.000275795 0.000274265 0.000347227 0.000060670
 0.000015800 0.000020543 0.000092022 0.000089852 0.000224479 0.000211966
 0.000028749 0.000024468 0.000062991 0.000062634 0.000072736 0.000204093
 0.000136026 0.000171263 0.000033468 0.000035574 0.000250577 0.000315532
 0.000445323 0.000180760 0.000289083
     154
 0.000001223 0.000001341 0.000001267 0.000113160 0.000055710 0.000058862
 0.000020707 0.000020550 0.000273592 0.000270177 0.000342925 0.000060681
 0.000025633 0.000020780 0.000093702 0.000089003 0.000223535 0.000200314
 0.000032640 0.000023759 0.000063223 0.000062444 0.000072066 0.000197752
 0.000135535 0.000169760 0.000033907 0.000038598 0.000247967 0.000310930
 0.000437321 0.000178590 0.000286076
     155
 0.000001198 0.000001404 0.000001232 0.000111187 0.000054200 0.000059704
 0.000019850 0.000019604 0.000270544 0.000264543 0.000337073 0.000060709
 0.000034530 0.000020968 0.000095957 0.000087966 0.000222179 0.000188890
 0.000037033 0.000022788 0.000063497 0.000062169 0.000071148 0.000190009
 0.000134848 0.000167731 0.000034498 0.000042719 0.000244387 0.000304598
 0.000426339 0.000175611 0.000281954
     156
 0.000001167 0.000001480 0.000001189 0.000108701 0.000052317 0.000060723
 0.000018795 0.000018475 0.000266683 0.000257448 0.000329829 0.000060761
 0.000041582 0.000021073 0.000098697 0.000086784 0.000220384 0.000178622
 0.000041358 0.000021575 0.000063772 0.000061802 0.000069998 0.000181514
 0.000133965 0.000165239 0.000035218 0.000047828 0.000239903 0.000296640
 0.000412593 0.000171876 0.000276799
     157
 0.000001133 0.000001566 0.000001140 0.000105740 0.000050104 0.000061872
 0.000017576 0.000017216 0.000262054 0.000249005 0.000321385 0.000060849
 0.000046689 0.000021100 0.000101818 0.000085460 0.000218113 0.000169636
 0.000045231 0.000020145 0.000064001 0.000061332 0.000068641 0.000172745
 0.000132884 0.000162360 0.000036041 0.000053788 0.000234601 0.000287191
 0.000396347 0.000167455 0.000270715
     158
 0.000001095 0.000001660 0.000001084 0.000102345 0.000047610 0.000063098
 0.000016228 0.000015888 0.000256709 0.000239348 0.000311951 0.000060979
 0.000050050 0.000021075 0.000105208 0.000083983 0.000215331 0.000161766
 0.000048442 0.000018531 0.000064142 0.000060750 0.000067109 0.000164018
 0.000131606 0.000159171 0.000036936 0.000060444 0.000228575 0.000276405
 0.000377912 0.000162429 0.000263824
     159
 0.000001057 0.000001757 0.000001024 0.000098567 0.000044890 0.000064343
 0.000014793 0.000014547 0.000250706 0.000228631 0.000301750 0.000061155
 0.000051927 0.000021023 0.000108755 0.000082340 0.000212004 0.000154796
 0.000050912 0.000016767 0.000064154 0.000060048 0.000065444 0.000130127
 0.000155524 0.000155748 0.000037874 0.000067622 0.000221929 0.000264454
 0.000357636 0.000156888 0.000256257
     160
 0.000001018 0.000001854 0.000000961 0.000094460 0.000042002 0.000065543
 0.000013311 0.000013246 0.000244110 0.000217026 0.000291007 0.000061367
 0.000052577 0.000020967 0.000112348 0.000080525 0.000208101 0.000148529
 0.000052645 0.000014891 0.000064007 0.000059216 0.000063692 0.000128447
 0.000147377 0.000152163 0.000038824 0.000075136 0.000214773 0.000251526
 0.000335892 0.000150931 0.000248157
     161
 0.000000980 0.000001948 0.000000898 0.000090082 0.000039007 0.000066635
 0.000011823 0.000012032 0.000236992 0.000204716 0.000279945 0.000061593
 0.000052228 0.000020919 0.000115883 0.000078544 0.000203600 0.000142814
 0.000053694 0.000012947 0.000063678 0.000058251 0.000061903 0.000126562
 0.000139646 0.000148484 0.000039755 0.000082793 0.000207215 0.000237819
 0.000313072 0.000144662 0.000239674
     162
 0.000000946 0.000002035 0.000000834 0.000085494 0.000035967 0.000067554
 0.000010366 0.000010941 0.000229426 0.000191896 0.000268773 0.000061790
 0.000051095 0.000020884 0.000119269 0.000076411 0.000198489 0.000137533
 0.000054136 0.000010978 0.000063152 0.000057148 0.000060126 0.000124471
 0.000132374 0.000144769 0.000040640 0.000090401 0.000199364 0.000223534
 0.000289574 0.000138187 0.000230957
     163
 0.000000915 0.000002113 0.000000774 0.000080757 0.000032945 0.000068239
 0.000008978 0.000010001 0.000221488 0.000178760 0.000257684 0.000061901
 0.000049378 0.000020863 0.000122424 0.000074147 0.000192771 0.000132605
 0.000054060 0.000009029 0.000062425 0.000055909 0.000058411 0.000122171
 0.000125594 0.000141069 0.000041452 0.000097774 0.000191326 0.000208874
 0.000265791 0.000131613 0.000222151
     164
 0.000000890 0.000002178 0.000000716 0.000075934 0.000029999 0.000068633
 0.000007688 0.000009229 0.000213256 0.000165500 0.000246850 0.000061857
 0.000047262 0.000020850 0.000125278 0.000071780 0.000186462 0.000127968
 0.000053558 0.000061497 0.000007146 0.000054540 0.000056799 0.000119661
 0.000119332 0.000137427 0.000042170 0.000104734 0.000183195 0.000194037
 0.000242105 0.000125046 0.000213398
     165
 0.000000872 0.000002230 0.000000664 0.000071086 0.000027184 0.000068687
 0.000006525 0.000008633 0.000204805 0.000152299 0.000236419 0.000061594
 0.000044913 0.000020842 0.000127776 0.000069337 0.000179596 0.000123579
 0.000052716 0.000060379 0.000005373 0.000053049 0.000055332 0.000116940
 0.000113611 0.000133879 0.000042773 0.000111123 0.000175062 0.000179212
 0.000218872 0.000118586 0.000204826
     166
 0.000000860 0.000002266 0.000000618 0.000066272 0.000024550 0.000068357
 0.000005507 0.000008211 0.000196210 0.000139329 0.000226513 0.000061062
 0.000042467 0.000020833 0.000129871 0.000066845 0.000172220 0.000119407
 0.000051616 0.000059084 0.000003750 0.000051451 0.000054040 0.000114012
 0.000108448 0.000130453 0.000043245 0.000116805 0.000167003 0.000164575
 0.000196414 0.000112328 0.000196551
     167
 0.000000855 0.000002287 0.000000579 0.000061548 0.000022141 0.000067614
 0.000004651 0.000007956 0.000187542 0.000126741 0.000217227 0.000060238
 0.000040022 0.000020820 0.000131526 0.000064334 0.000164401 0.000115430
 0.000050334 0.000057631 0.000002317 0.000049767 0.000052948 0.000110878
 0.000103857 0.000127171 0.000043571 0.000121667 0.000159086 0.000150286
 0.000175015 0.000106357 0.000188671
     168
 0.000000858 0.000002291 0.000000548 0.000056966 0.000019994 0.000066438
 0.000003964 0.000007856 0.000178867 0.000114668 0.000208627 0.000059125
 0.000037644 0.000020802 0.000132713 0.000061828 0.000156215 0.000111633
 0.000048934 0.000056040 0.000001106 0.000048021 0.000052074 0.000107548
 0.000099846 0.000124049 0.000043743 0.000125628 0.000151364 0.000136488
 0.000154911 0.000100749 0.000181267
     169
 0.000000868 0.000002280 0.000000525 0.000052571 0.000018135 0.000064823
 0.000003450 0.000007892 0.000170246 0.000103219 0.000200753 0.000057748
 0.000035366 0.000020779 0.000133410 0.000059349 0.000147754 0.000108008
 0.000047473 0.000054336 0.000000144 0.000046241 0.000051424 0.000104030
 0.000096415 0.000121096 0.000043752 0.000128636 0.000143880 0.000123299
 0.000136287 0.000095568 0.000174397
     170
 0.000000885 0.000002252 0.000000511 0.000048403 0.000016586 0.000062775
 0.000003106 0.000008044 0.000161735 0.000092483 0.000193618 0.000056146
 0.000033202 0.000020753 0.000133600 0.000056917 0.000139116 0.000104548
 0.000045998 0.000052542-0.000000548 0.000044460 0.000050998 0.000100340
 0.000093559 0.000118316 0.000043595 0.000130671 0.000136666 0.000110817
 0.000119276 0.000090865 0.000168098
     171
 0.000000907 0.000002211 0.000000504 0.000044495 0.000015355 0.000060317
 0.000002923 0.000008292 0.000153380 0.000082524 0.000187209 0.000054363
 0.000031154 0.000020731 0.000133273 0.000054549 0.000101252 0.000130406
 0.000044546 0.000050683-0.000000960 0.000042714 0.000050786 0.000096495
 0.000091262 0.000115709 0.000043272 0.000131742 0.000129741 0.000099116
 0.000103959 0.000086677 0.000162384
     172
 0.000000933 0.000002156 0.000000504 0.000040872 0.000014444 0.000057481
 0.000002891 0.000008613 0.000145223 0.000073385 0.000181490 0.000052445
 0.000029217 0.000020718 0.000132420 0.000052257 0.000098119 0.000121731
 0.000043144 0.000048783-0.000001086 0.000041042 0.000050772 0.000092517
 0.000089501 0.000113266 0.000042788 0.000131889 0.000123116 0.000088246
 0.000090364 0.000083028 0.000157249
     173
 0.000000963 0.000002090 0.000000510 0.000037552 0.000013847 0.000054317
 0.000002992 0.000008986 0.000137296 0.000065090 0.000176406 0.000050434
 0.000020724 0.000027384 0.000131036 0.000050053 0.000095153 0.000113195
 0.000041810 0.000046864-0.000000931 0.000039485 0.000050931 0.000088432
 0.000088246 0.000110973 0.000042155 0.000131174 0.000116793 0.000078235
 0.000078475 0.000079928 0.000152663
     174
 0.000000994 0.000002013 0.000000522 0.000034545 0.000013547 0.000050882
 0.000003209 0.000009388 0.000129628 0.000057646 0.000171880 0.000048368
 0.000020756 0.000025648 0.000129119 0.000047943 0.000092358 0.000104899
 0.000040552 0.000044947-0.000000506 0.000038085 0.000051232 0.000084270
 0.000087457 0.000108810 0.000041392 0.000129682 0.000110767 0.000069089
 0.000068232 0.000077371 0.000148579
     175
 0.000001025 0.000001929 0.000000538 0.000031854 0.000013521 0.000047246
 0.000003520 0.000009799 0.000122237 0.000051045 0.000167824 0.000046278
 0.000020826 0.000024003 0.000126670 0.000045931 0.000089738 0.000096935
 0.000039372 0.000043050 0.000000168 0.000036883 0.000051640 0.000080063
 0.000087090 0.000106745 0.000040526 0.000127511 0.000105029 0.000060795
 0.000059542 0.000075341 0.000144933
     176
 0.000001053 0.000001838 0.000000555 0.000029475 0.000013740 0.000043484
 0.000003905 0.000010203 0.000115138 0.000045266 0.000164137 0.000044190
 0.000020941 0.000022444 0.000123693 0.000044019 0.000087300 0.000089383
 0.000038264 0.000041191 0.000001064 0.000035923 0.000052117 0.000075846
 0.000087092 0.000104741 0.000039595 0.000124770 0.000099566 0.000053321
 0.000052286 0.000073807 0.000141643
     177
 0.000001078 0.000001742 0.000000574 0.000027398 0.000014168 0.000039679
 0.000010582 0.000004341 0.000108338 0.000040280 0.000160712 0.000042125
 0.000021113 0.000020967 0.000120195 0.000042208 0.000085049 0.000082313
 0.000037214 0.000039383 0.000002152 0.000035245 0.000052623 0.000071655
 0.000087408 0.000102753 0.000038646 0.000121573 0.000094362 0.000046623
 0.000046324 0.000072728 0.000138620
     178
 0.000001097 0.000001642 0.000000591 0.000025606 0.000014766 0.000035914
 0.000010921 0.000004807 0.000101842 0.000036047 0.000157439 0.000040098
 0.000021349 0.000019568 0.000116186 0.000040495 0.000082991 0.000075778
 0.000036208 0.000037638 0.000003394 0.000034887 0.000067528 0.000053116
 0.000100728 0.000087979 0.000037735 0.000118033 0.000089403 0.000040645
 0.000041505 0.000072055 0.000135766
     179
 0.000001109 0.000001541 0.000000606 0.000024078 0.000015493 0.000032272
 0.000011210 0.000005283 0.000095648 0.000032526 0.000154210 0.000038122
 0.000021657 0.000018247 0.000111680 0.000038876 0.000081128 0.000069814
 0.000035227 0.000035966 0.000004752 0.000034887 0.000063500 0.000053559
 0.000098610 0.000088746 0.000036926 0.000114259 0.000084676 0.000035321
 0.000037677 0.000071730 0.000132978
     180
 0.000001112 0.000001440 0.000000617 0.000022791 0.000016303 0.000028831
 0.000011439 0.000005750 0.000089753 0.000029668 0.000150923 0.000036204
 0.000022042 0.000017000 0.000106696 0.000037345 0.000079464 0.000064442
 0.000034250 0.000034373 0.000006186 0.000035278 0.000059605 0.000053915
 0.000096347 0.000089647 0.000036283 0.000110351 0.000080173 0.000030581
 0.000034688 0.000071689 0.000130155
     181
 0.000001106 0.000001339 0.000000623 0.000021719 0.000017153 0.000025664
 0.000011602 0.000006191 0.000084149 0.000027423 0.000147486 0.000034351
 0.000022509 0.000015826 0.000101254 0.000035895 0.000077998 0.000059666
 0.000033260 0.000032867 0.000007655 0.000036092 0.000055876 0.000054151
 0.000093892 0.000090624 0.000035864 0.000106396 0.000075886 0.000026353
 0.000032396 0.000071864 0.000127200
     182
 0.000001088 0.000001241 0.000000621 0.000020834 0.000018000 0.000022833
 0.000011695 0.000006591 0.000078829 0.000025739 0.000143822 0.000032566
 0.000023060 0.000014725 0.000095382 0.000034519 0.000076727 0.000055473
 0.000032240 0.000031451 0.000009121 0.000037354 0.000052337 0.000054243
 0.000091215 0.000091620 0.000035720 0.000102472 0.000071815 0.000022564
 0.000030670 0.000072186 0.000124025
     183
 0.000001058 0.000001145 0.000000612 0.000020107 0.000018805 0.000020390
 0.000011719 0.000006940 0.000073783 0.000024563 0.000139870 0.000030853
 0.000023695 0.000013693 0.000089109 0.000033208 0.000075647 0.000051837
 0.000031178 0.000030130 0.000010550 0.000039087 0.000049009 0.000054168
 0.000088301 0.000092584 0.000035884 0.000098639 0.000067965 0.000019147
 0.000029398 0.000072586 0.000120553
     184
 0.000001017 0.000001053 0.000000595 0.000019513 0.000019532 0.000018371
 0.000011676 0.000007227 0.000069002 0.000023843 0.000135589 0.000029213
 0.000024410 0.000012732 0.000082470 0.000031952 0.000074750 0.000048718
 0.000030067 0.000028908 0.000011910 0.000041310 0.000045903 0.000053913
 0.000085157 0.000093466 0.000036376 0.000094947 0.000064345 0.000016037
 0.000028481 0.000072997 0.000116726
     185
 0.000000965 0.000000965 0.000000569 0.000019026 0.000020148 0.000016801
 0.000011572 0.000007448 0.000064476 0.000023527 0.000130961 0.000027647
 0.000025201 0.000011838 0.000075506 0.000030744 0.000074027 0.000046066
 0.000028906 0.000027787 0.000013176 0.000044035 0.000043023 0.000053471
 0.000081806 0.000094225 0.000037198 0.000091432 0.000060969 0.000013178
 0.000027840 0.000073356 0.000112501
     186
 0.000000901 0.000000883 0.000000535 0.000018623 0.000020630 0.000015684
 0.000011415 0.000007598 0.000060197 0.000023562 0.000125989 0.000026157
 0.000026059 0.000011011 0.000068261 0.000029575 0.000073464 0.000043824
 0.000027700 0.000026773 0.000014327 0.000047270 0.000040364 0.000052842
 0.000078288 0.000094823 0.000038338 0.000088117 0.000057857 0.000010523
 0.000027413 0.000073606 0.000107860
     187
 0.000000828 0.000000805 0.000000492 0.000018284 0.000020956 0.000015015
 0.000011218 0.000007679 0.000056159 0.000023899 0.000120698 0.000024746
 0.000026975 0.000010249 0.000060787 0.000028438 0.000073049 0.000041926
 0.000026463 0.000025869 0.000015348 0.000051014 0.000037911 0.000052035
 0.000074651 0.000095231 0.000039780 0.000085020 0.000055029 0.000008033
 0.000027151 0.000073697 0.000102807
     188
 0.000000746 0.000000733 0.000000442 0.000017992 0.000014770 0.000021115
 0.000010993 0.000007691 0.000052355 0.000024488 0.000115135 0.000023418
 0.000027935 0.000009552 0.000053141 0.000027326 0.000072764 0.000040306
 0.000025215 0.000025080 0.000055258 0.000016231 0.000035642 0.000051063
 0.000070950 0.000095424 0.000041497 0.000082147 0.000052510 0.000005678
 0.000027020 0.000073588 0.000097370
     189
 0.000000657 0.000000666 0.000000385 0.000017734 0.000014913 0.000021100
 0.000010755 0.000007641 0.000048783 0.000025279 0.000109366 0.000022175
 0.000028923 0.000008917 0.000045390 0.000026236 0.000072593 0.000038888
 0.000023988 0.000024411 0.000059976 0.000016973 0.000033528 0.000049947
 0.000067243 0.000095382 0.000043462 0.000079501 0.000050324 0.000003440
 0.000026995 0.000073246 0.000091601
     190
 0.000000564 0.000000605 0.000000323 0.000017500 0.000015396 0.000020914
 0.000010523 0.000007534 0.000045442 0.000026226 0.000103476 0.000021022
 0.000029922 0.000008343 0.000037609 0.000025165 0.000072520 0.000037565
 0.000022858 0.000023869 0.000065128 0.000017576 0.000031541 0.000048717
 0.000063585 0.000095093 0.000045649 0.000077081 0.000048492 0.000001309
 0.000027057 0.000072651 0.000085579
     191
 0.000000468 0.000000550 0.000000257 0.000017282 0.000016161 0.000020563
 0.000010313 0.000007381 0.000042332 0.000027285 0.000097561 0.000019966
 0.000030912 0.000007827 0.000029884 0.000024113 0.000072525 0.000035894
 0.000022237 0.000023457 0.000070647 0.000018049 0.000029656 0.000047404
 0.000060033 0.000094549 0.000048028 0.000074884 0.000047035-0.000000716
 0.000027193 0.000071789 0.000079401
     192
 0.000000371 0.000000500 0.000000190 0.000017077 0.000017144 0.000020061
 0.000010143 0.000007192 0.000039459 0.000028412 0.000019011 0.000091732
 0.000031875 0.000007369 0.000022310 0.000023083 0.000072591 0.000025822
 0.000030162 0.000023182 0.000076437 0.000018403 0.000027857 0.000046047
 0.000056636 0.000093747 0.000050573 0.000072905 0.000045968-0.000002630
 0.000027392 0.000070661 0.000073186
     193
[...]
 0.000020356 0.000005851 0.000229220 0.000060682 0.000040404 0.000026784
 0.000027523 0.000021833 0.000137622 0.000053616 0.000050642 0.000050642
 0.000068003 0.000060789 0.000062755 0.000070266 0.000057442 0.000054635
 0.000052319 0.000101669 0.000099615 0.000077544 0.000028167 0.000057325
 0.000053641 0.000060970 0.000060908
     205
 0.000001919 0.000002137 0.000001106 0.000028754 0.000033246 0.000022489
 0.000020125 0.000005909 0.000227584 0.000061727 0.000040552 0.000026952
 0.000027795 0.000021937 0.000137395 0.000053788 0.000050754 0.000050760
 0.000069594 0.000059822 0.000062823 0.000070416 0.000057236 0.000054956
 0.000051914 0.000101737 0.000098809 0.000077956 0.000029063 0.000057316
 0.000053069 0.000060867 0.000060806
     206
 0.000001880 0.000002159 0.000001124 0.000028791 0.000033274 0.000022867
 0.000019912 0.000005982 0.000225478 0.000063084 0.000040741 0.000027214
 0.000028086 0.000022070 0.000137125 0.000053977 0.000050901 0.000050895
 0.000071318 0.000058931 0.000062905 0.000070608 0.000056961 0.000055253
 0.000051518 0.000101746 0.000097860 0.000078467 0.000029772 0.000057326
 0.000052746 0.000060737 0.000060676
     207
 0.000001839 0.000002181 0.000001144 0.000028836 0.000033309 0.000023262
 0.000019714 0.000006067 0.000222917 0.000064740 0.000040967 0.000027567
 0.000028392 0.000022233 0.000136820 0.000054170 0.000051084 0.000051041
 0.000073175 0.000058126 0.000062994 0.000070842 0.000056621 0.000055526
 0.000051134 0.000101695 0.000096782 0.000079063 0.000030381 0.000057352
 0.000052581 0.000060580 0.000060522
     208
 0.000001799 0.000002203 0.000001164 0.000028888 0.000033353 0.000023672
 0.000019531 0.000006163 0.000219928 0.000066675 0.000041227 0.000028010
 0.000028713 0.000022427 0.000136487 0.000054359 0.000051301 0.000051190
 0.000075163 0.000057414 0.000063080 0.000071116 0.000056222 0.000055776
 0.000050767 0.000101584 0.000095592 0.000079722 0.000057394 0.000030940
 0.000052520 0.000060396 0.000060344
     209
 0.000001759 0.000002225 0.000001183 0.000028948 0.000033406 0.000024097
 0.000019363 0.000006268 0.000216546 0.000068860 0.000041515 0.000028540
 0.000029047 0.000022650 0.000054539 0.000136134 0.000051545 0.000051338
 0.000077280 0.000056801 0.000063158 0.000071430 0.000055772 0.000056001
 0.000050420 0.000101415 0.000094310 0.000080423 0.000057450 0.000031479
 0.000052532 0.000060184 0.000060145
     210
 0.000001720 0.000002246 0.000001203 0.000029014 0.000033470 0.000024532
 0.000019208 0.000006383 0.000212816 0.000071253 0.000041827 0.000029154
 0.000029393 0.000022902 0.000054708 0.000135767 0.000051810 0.000051480
 0.000079525 0.000056290 0.000063220 0.000071779 0.000055278 0.000056200
 0.000050096 0.000101187 0.000092958 0.000081142 0.000057521 0.000032017
 0.000052593 0.000059946 0.000059926
     211
 0.000001682 0.000002267 0.000001222 0.000029087 0.000033546 0.000024977
 0.000019064 0.000006504 0.000208790 0.000073806 0.000042159 0.000029852
 0.000029749 0.000023185 0.000054865 0.000135393 0.000052087 0.000051613
 0.000081893 0.000055882 0.000063262 0.000072163 0.000054746 0.000056374
 0.000049796 0.000100904 0.000091556 0.000081858 0.000057604 0.000032565
 0.000052690 0.000059680 0.000059689
     212
 0.000001646 0.000002288 0.000001240 0.000029167 0.000033636 0.000025429
 0.000018932 0.000006631 0.000204525 0.000076461 0.000042507 0.000030636
 0.000030114 0.000023498 0.000055008 0.000135017 0.000052369 0.000051737
 0.000084379 0.000055574 0.000063283 0.000072579 0.000054183 0.000056523
 0.000049524 0.000100566 0.000090124 0.000082552 0.000057701 0.000033129
 0.000059386 0.000052811 0.000059437
     213
 0.000001611 0.000002308 0.000001258 0.000029252 0.000033742 0.000025883
 0.000018810 0.000006763 0.000200080 0.000079150 0.000042867 0.000031516
 0.000030486 0.000023841 0.000055138 0.000134644 0.000052650 0.000051851
 0.000086975 0.000055363 0.000063283 0.000073022 0.000053594 0.000056646
 0.000049280 0.000100176 0.000088676 0.000083206 0.000057811 0.000033716
 0.000059066 0.000052950 0.000059172
     214
 0.000001577 0.000002327 0.000001275 0.000029342 0.000033866 0.000026336
 0.000018696 0.000006899 0.000195516 0.000081784 0.000043237 0.000032523
 0.000030864 0.000024215 0.000055252 0.000134281 0.000052923 0.000051962
 0.000089669 0.000055246 0.000063261 0.000073490 0.000052984 0.000056744
 0.000049065 0.000099737 0.000087227 0.000083809 0.000057933 0.000034325
 0.000058718 0.000053100 0.000058894
     215
 0.000001546 0.000002346 0.000001291 0.000029438 0.000034012 0.000026783
 0.000018590 0.000007037 0.000190889 0.000084207 0.000043613 0.000033758
 0.000031245 0.000024619 0.000055349 0.000133932 0.000053187 0.000052079
 0.000092444 0.000055216 0.000063220 0.000073979 0.000052356 0.000056816
 0.000048880 0.000099250 0.000085788 0.000084350 0.000058067 0.000034959
 0.000058345 0.000053256 0.000058608
     216
 0.000001515 0.000002364 0.000001307 0.000029537 0.000034183 0.000027220
 0.000018490 0.000007177 0.000186254 0.000085860 0.000043991 0.000035725
 0.000031628 0.000025053 0.000055427 0.000133601 0.000053436 0.000052220
 0.000055268 0.000095276 0.000063162 0.000074484 0.000051714 0.000056865
 0.000048726 0.000098718 0.000084366 0.000084822 0.000058213 0.000035618
 0.000057946 0.000053416 0.000058313
     217
 0.000001487 0.000002381 0.000001321 0.000029640 0.000034383 0.000027641
 0.000018396 0.000007318 0.000181657 0.000044371 0.000079192 0.000045931
 0.000032012 0.000025519 0.000055486 0.000133291 0.000053670 0.000052412
 0.000055394 0.000098130 0.000063088 0.000075001 0.000051062 0.000056890
 0.000048601 0.000098144 0.000082968 0.000085223 0.000058371 0.000036300
 0.000057523 0.000053577 0.000058014
     218
 0.000001461 0.000002398 0.000001335 0.000029746 0.000034614 0.000028041
 0.000018306 0.000007459 0.000177139 0.000044749 0.000037041 0.000091498
 0.000032394 0.000026017 0.000055524 0.000133006 0.000053886 0.000052697
 0.000055587 0.000100959 0.000075525 0.000063003 0.000050401 0.000056893
 0.000048506 0.000097532 0.000081597 0.000085551 0.000058540 0.000037005
 0.000057076 0.000053735 0.000057710
     219
 0.000001436 0.000002414 0.000001347 0.000029855 0.000034881 0.000028414
 0.000018219 0.000007599 0.000172734 0.000045123 0.000036599 0.000095198
 0.000032773 0.000026548 0.000055540 0.000132749 0.000054084 0.000053133
 0.000055840 0.000103697 0.000076053 0.000062907 0.000049735 0.000056875
 0.000048438 0.000096883 0.000080256 0.000085807 0.000058719 0.000037730
 0.000056608 0.000053890 0.000057404
     220
 0.000001413 0.000002429 0.000001359 0.000029966 0.000035185 0.000028756
 0.000018135 0.000007737 0.000168470 0.000037676 0.000045492 0.000097196
 0.000033148 0.000027111 0.000055534 0.000132522 0.000054263 0.000053801
 0.000056145 0.000106257 0.000076578 0.000062804 0.000049065 0.000056838
 0.000048398 0.000078947 0.000096202 0.000085991 0.000058910 0.000038473
 0.000056119 0.000054040 0.000057098
     221
 0.000001391 0.000002443 0.000001370 0.000030078 0.000035529 0.000029062
 0.000018053 0.000007872 0.000164366 0.000038856 0.000045854 0.000098888
 0.000033516 0.000027708 0.000055505 0.000132326 0.000054423 0.000054799
 0.000056496 0.000108534 0.000077097 0.000062696 0.000048394 0.000056783
 0.000048383 0.000077671 0.000095490 0.000086109 0.000059110 0.000039234
 0.000055611 0.000054184 0.000056793
     222
 0.000001372 0.000002456 0.000001380 0.000030192 0.000035910 0.000029334
 0.000017973 0.000008004 0.000160438 0.000040061 0.000046208 0.000100336
 0.000033877 0.000028340 0.000055453 0.000132163 0.000054565 0.000056246
 0.000056885 0.000110402 0.000077604 0.000062585 0.000047722 0.000056712
 0.000048391 0.000076428 0.000094752 0.000086163 0.000059320 0.000040007
 0.000055087 0.000054320 0.000056491
     223
 0.000001353 0.000002468 0.000001390 0.000030307 0.000036323 0.000029573
 0.000017894 0.000008129 0.000156695 0.000041281 0.000046552 0.000101542
 0.000034229 0.000029007 0.000055379 0.000132034 0.000054690 0.000057305
 0.000058259 0.000111735 0.000078095 0.000062472 0.000047052 0.000056628
 0.000048422 0.000075217 0.000093991 0.000086159 0.000059538 0.000040793
 0.000054548 0.000054449 0.000056193
     224
 0.000001337 0.000002480 0.000001398 0.000030422 0.000036761 0.000029785
 0.000017817 0.000008249 0.000153142 0.000042514 0.000046887 0.000102502
 0.000034571 0.000029712 0.000055282 0.000131938 0.000054798 0.000057751
 0.000060942 0.000112423 0.000078565 0.000062359 0.000046385 0.000056531
 0.000048472 0.000074040 0.000093210 0.000086101 0.000059765 0.000041586
 0.000053997 0.000054569 0.000055900
     225
 0.000001322 0.000002490 0.000001406 0.000030538 0.000037213 0.000029978
 0.000017742 0.000008360 0.000149782 0.000043758 0.000047211 0.000103216
 0.000034902 0.000030454 0.000055165 0.000131875 0.000054891 0.000058215
 0.000064352 0.000112402 0.000079011 0.000062248 0.000045722 0.000056424
 0.000048541 0.000072895 0.000092412 0.000085995 0.000060000 0.000042386
 0.000053435 0.000054681 0.000055613
     226
 0.000001308 0.000002500 0.000001413 0.000030653 0.000037669 0.000030162
 0.000017670 0.000008462 0.000146613 0.000045010 0.000047523 0.000103688
 0.000035221 0.000031235 0.000055026 0.000131846 0.000054970 0.000058692
 0.000068480 0.000111673 0.000079427 0.000062139 0.000045064 0.000056310
 0.000048626 0.000071784 0.000091600 0.000085847 0.000060241 0.000043189
 0.000052865 0.000054784 0.000055333
     227
 0.000001296 0.000002508 0.000001420 0.000030768 0.000038118 0.000030343
 0.000017599 0.000008555 0.000143631 0.000046268 0.000047824 0.000103925
 0.000035527 0.000032058 0.000054869 0.000055035 0.000131849 0.000059178
 0.000073246 0.000110306 0.000079812 0.000062034 0.000044412 0.000056189
 0.000048726 0.000070705 0.000090779 0.000085661 0.000060487 0.000043991
 0.000052290 0.000054877 0.000055061
     228
 0.000001285 0.000002516 0.000001425 0.000030882 0.000038554 0.000030526
 0.000017531 0.000008638 0.000140832 0.000047529 0.000048112 0.000103934
 0.000035820 0.000032922 0.000054693 0.000055090 0.000131882 0.000059666
 0.000078516 0.000108428 0.000080161 0.000061932 0.000043767 0.000056064
 0.000048839 0.000069660 0.000089952 0.000085444 0.000060739 0.000044791
 0.000051711 0.000054962 0.000054799
     229
 0.000001275 0.000002523 0.000001431 0.000030996 0.000038973 0.000030714
 0.000017464 0.000008710 0.000138209 0.000048788 0.000048388 0.000103726
 0.000036098 0.000033829 0.000054502 0.000055134 0.000131945 0.000060154
 0.000084129 0.000106189 0.000080472 0.000061835 0.000043130 0.000055937
 0.000048964 0.000068648 0.000089121 0.000085201 0.000060993 0.000045585
 0.000051131 0.000055037 0.000054546
     230
 0.000001266 0.000001435 0.000002529 0.000031108 0.000039371 0.000030907
 0.000017400 0.000008772 0.000135757 0.000050042 0.000048652 0.000103312
 0.000036361 0.000034781 0.000054295 0.000055169 0.000132035 0.000060637
 0.000089931 0.000103735 0.000080743 0.000061742 0.000042502 0.000055809
 0.000049099 0.000067671 0.000088291 0.000084936 0.000061250 0.000046371
 0.000050553 0.000055104 0.000054303
     231
 0.000001259 0.000001439 0.000002534 0.000031218 0.000039749 0.000031104
 0.000017337 0.000008824 0.000133468 0.000051286 0.000048904 0.000102703
 0.000036610 0.000035780 0.000054077 0.000055196 0.000132150 0.000061112
 0.000095791 0.000101188 0.000080972 0.000061655 0.000055682 0.000041883
 0.000049243 0.000066728 0.000087466 0.000084655 0.000061508 0.000047145
 0.000049980 0.000055162 0.000054070
     232
 0.000001252 0.000001442 0.000002539 0.000031327 0.000040105 0.000031304
 0.000017274 0.000008866 0.000131334 0.000052516 0.000049143 0.000101912
 0.000036843 0.000036826 0.000053847 0.000055217 0.000132288 0.000061575
 0.000101607 0.000098638 0.000081158 0.000061573 0.000055557 0.000041274
 0.000049395 0.000065821 0.000086649 0.000084363 0.000061765 0.000047904
 0.000049413 0.000055212 0.000053849
     233
 0.000001246 0.000001445 0.000002543 0.000031434 0.000040440 0.000031507
 0.000017213 0.000008900 0.000129349 0.000053727 0.000049369 0.000100953
 0.000037060 0.000037921 0.000053609 0.000055232 0.000132446 0.000062024
 0.000107309 0.000096144 0.000081302 0.000061495 0.000055435 0.000040676
 0.000049555 0.000064951 0.000085844 0.000084065 0.000062020 0.000048646
 0.000048855 0.000055254 0.000053639
     234
 0.000001241 0.000001448 0.000002546 0.000031539 0.000040753 0.000031709
 0.000017152 0.000008925 0.000127506 0.000054915 0.000049584 0.000099837
 0.000037262 0.000039067 0.000053365 0.000055244 0.000132621 0.000062457
 0.000112849 0.000093743 0.000081403 0.000061423 0.000055318 0.000040088
 0.000049722 0.000064118 0.000085054 0.000083763 0.000062272 0.000049368
 0.000048310 0.000055289 0.000053441
     235
 0.000001236 0.000001450 0.000002549 0.000031641 0.000041043 0.000031911
 0.000017091 0.000008944 0.000125798 0.000056073 0.000049786 0.000098578
 0.000037449 0.000040263 0.000053117 0.000055251 0.000132810 0.000062871
 0.000118193 0.000091458 0.000081462 0.000061356 0.000055206 0.000039511
 0.000049897 0.000063325 0.000084284 0.000083463 0.000062518 0.000050067
 0.000047778 0.000055317 0.000053254
     236
 0.000001232 0.000001452 0.000002551 0.000031740 0.000041312 0.000032111
 0.000017030 0.000008956 0.000124220 0.000057198 0.000049976 0.000097190
 0.000037621 0.000041512 0.000052868 0.000055256 0.000133011 0.000063266
 0.000123319 0.000089298 0.000081482 0.000061294 0.000055100 0.000038945
 0.000050079 0.000062571 0.000083536 0.000083168 0.000062759 0.000050740
 0.000047263 0.000055339 0.000053080
     237
 0.000001229 0.000001453 0.000002552 0.000031835 0.000041558 0.000032308
 0.000016970 0.000008963 0.000122765 0.000058283 0.000050154 0.000095685
 0.000037777 0.000042813 0.000052620 0.000055259 0.000133219 0.000063639
 0.000128208 0.000087271 0.000081465 0.000061237 0.000055000 0.000038390
 0.000050270 0.000061859 0.000082816 0.000082882 0.000062991 0.000051384
 0.000046767 0.000055356 0.000052917
     238
 0.000001226 0.000001454 0.000002554 0.000031927 0.000041782 0.000032500
 0.000016909 0.000008966 0.000121428 0.000059323 0.000050320 0.000094078
 0.000037919 0.000044167 0.000052375 0.000055260 0.000133431 0.000063989
 0.000132843 0.000085379 0.000081414 0.000061184 0.000054907 0.000037847
 0.000050468 0.000061190 0.000082126 0.000082606 0.000063213 0.000051998
 0.000046293 0.000055368 0.000052766
     239
 0.000001224 0.000001455 0.000002555 0.000032014 0.000041984 0.000032687
 0.000016850 0.000008966 0.000120206 0.000060313 0.000050474 0.000092380
 0.000038048 0.000045573 0.000052137 0.000055260 0.000133645 0.000064316
 0.000137210 0.000083625 0.000081333 0.000061136 0.000054821 0.000037315
 0.000050675 0.000060564 0.000081471 0.000082345 0.000063425 0.000052577
 0.000045842 0.000055375 0.000052626
     240
 0.000001222 0.000001456 0.000002555 0.000032097 0.000042164 0.000032868
 0.000016791 0.000008963 0.000119093 0.000061247 0.000050616 0.000090606
 0.000038162 0.000047030 0.000051906 0.000055260 0.000133856 0.000064619
 0.000141294 0.000082011 0.000081228 0.000061093 0.000054743 0.000036795
 0.000050891 0.000059984 0.000080852 0.000082099 0.000063625 0.000053121
 0.000045417 0.000055379 0.000052499
     241
 0.000001220 0.000001456 0.000002555 0.000032175 0.000042324 0.000033040
 0.000016734 0.000008957 0.000118088 0.000062121 0.000050746 0.000088770
 0.000038264 0.000048535 0.000051687 0.000055260 0.000134062 0.000064897
 0.000145079 0.000080538 0.000081102 0.000061053 0.000054672 0.000036288
 0.000051116 0.000059450 0.000080275 0.000081872 0.000063810 0.000053626
 0.000045020 0.000055380 0.000052383
     242
 0.000001219 0.000001457 0.000002555 0.000032246 0.000042464 0.000033202
 0.000016680 0.000008951 0.000117185 0.000062928 0.000050864 0.000086884
 0.000038353 0.000050086 0.000051480 0.000055259 0.000134259 0.000065149
 0.000148552 0.000079207 0.000080962 0.000061018 0.000054608 0.000035797
 0.000051349 0.000058963 0.000079743 0.000081663 0.000063982 0.000054090
 0.000044654 0.000055379 0.000052279
     243
 0.000001218 0.000001457 0.000002555 0.000032312 0.000042585 0.000033353
 0.000016628 0.000008944 0.000116384 0.000063666 0.000050970 0.000084965
 0.000038431 0.000051678 0.000051289 0.000055259 0.000134444 0.000065376
 0.000151698 0.000078019 0.000080814 0.000060986 0.000054552 0.000035323
 0.000051588 0.000058524 0.000079257 0.000081475 0.000064137 0.000054511
 0.000044320 0.000055376 0.000052186
     244
 0.000001217 0.000001457 0.000002555 0.000032371 0.000042688 0.000033491
 0.000016581 0.000008936 0.000115681 0.000064328 0.000051064 0.000083030
 0.000038498 0.000053302 0.000051115 0.000055259 0.000134615 0.000065576
 0.000154504 0.000076976 0.000080663 0.000060959 0.000054503 0.000034872
 0.000051829 0.000058135 0.000078821 0.000081309 0.000064276 0.000054888
 0.000044020 0.000055372 0.000052105
     245
 0.000001216 0.000001457 0.000002555 0.000032424 0.000042774 0.000033614
 0.000016538 0.000008929 0.000115075 0.000064910 0.000051145 0.000081101
 0.000038555 0.000054944 0.000050960 0.000055259 0.000134769 0.000065750
 0.000156960 0.000076076 0.000080517 0.000060935 0.000054461 0.000034449
 0.000052067 0.000057796 0.000078439 0.000081164 0.000064398 0.000055218
 0.000043756 0.000055367 0.000052035
     246
 0.000001216 0.000001457 0.000002555 0.000032469 0.000042845 0.000033722
 0.000016500 0.000008922 0.000114565 0.000065410 0.000051214 0.000079207
 0.000038601 0.000056583 0.000050826 0.000055259 0.000134903 0.000065898
 0.000159054 0.000075318 0.000080381 0.000060915 0.000054426 0.000034063
 0.000052295 0.000057508 0.000078110 0.000081042 0.000064502 0.000055500
 0.000043529 0.000055362 0.000051975
     247
 0.000001215 0.000001457 0.000002554 0.000032506 0.000042901 0.000033811
 0.000016468 0.000008916 0.000114149 0.000065823 0.000051271 0.000077397
 0.000038639 0.000058174 0.000050714 0.000055259 0.000135016 0.000066019
 0.000160778 0.000074702 0.000080262 0.000060898 0.000054397 0.000033724
 0.000052504 0.000057272 0.000077839 0.000080942 0.000064587 0.000055733
 0.000043342 0.000055358 0.000051927
     248
 0.000001215 0.000001457 0.000002554 0.000032535 0.000042944 0.000033883
 0.000016442 0.000008911 0.000113826 0.000066148 0.000051315 0.000075774
 0.000059623 0.000038667 0.000050626 0.000055259 0.000135105 0.000066113
 0.000162126 0.000074225 0.000080163 0.000060886 0.000054375 0.000033443
 0.000052683 0.000057088 0.000077627 0.000080864 0.000064654 0.000055915
 0.000043195 0.000055354 0.000051890
     249
 0.000001215 0.000001457 0.000002554 0.000032556 0.000042974 0.000033934
 0.000016424 0.000008907 0.000113596 0.000066381 0.000051347 0.000074605
 0.000060664 0.000038687 0.000050562 0.000055259 0.000135170 0.000066180
 0.000163093 0.000073886 0.000080089 0.000060877 0.000054359 0.000033232
 0.000052821 0.000056956 0.000077474 0.000080809 0.000064702 0.000056045
 0.000043089 0.000055351 0.000051863
     250
 0.000001214 0.000001457 0.000002554 0.000032569 0.000042992 0.000033965
 0.000016412 0.000008905 0.000113458 0.000066522 0.000051366 0.000074971
 0.000060220 0.000038699 0.000050523 0.000055260 0.000135210 0.000066220
 0.000163674 0.000073684 0.000080043 0.000060871 0.000054350 0.000033100
 0.000052909 0.000056876 0.000077382 0.000080775 0.000064731 0.000056124
 0.000043026 0.000055349 0.000051847
     251
 0.000001214 0.000001457 0.000002554 0.000032573 0.000042997 0.000033976
 0.000016409 0.000008904 0.000113412 0.000066569 0.000051372 0.000080150
 0.000055015 0.000038703 0.000050510 0.000055260 0.000135223 0.000066234
 0.000163868 0.000073616 0.000080028 0.000060870 0.000054347 0.000033055
 0.000052939 0.000056850 0.000077351 0.000080764 0.000064741 0.000056150
 0.000043004 0.000055348 0.000051841
 
     MATDYN       :     25.33s CPU     33.49s WALL

 
   This run was terminated on:  16:20: 2  24Oct2025            

=------------------------------------------------------------------------------=
   JOB DONE.
=------------------------------------------------------------------------------=
