
     Program Q2R v.7.1 starts on 24Oct2025 at 16:18:35 

     This program is part of the open-source Quantum ESPRESSO suite
     for quantum simulation of materials; please cite
         "P. Giannozzi et al., J. Phys.:Condens. Matter 21 395502 (2009);
         "P. Giannozzi et al., J. Phys.:Condens. Matter 29 465901 (2017);
         "P. Giannozzi et al., J. Chem. Phys. 152 154105 (2020);
          URL http://www.quantum-espresso.org", 
     in publications or presentations arising from this work. More details at
     http://www.quantum-espresso.org/quote

     Parallel version (MPI), running on    48 processors

     MPI processes distributed on     1 nodes
     K-points division:     npool     =       4
     R & G space division:  proc/nbgrp/npool/nimage =      12
     180420 MiB available memory on the printing compute node when the environment starts
 

     reading grid info from file Ce1H10.dyn0    
  reading force constants from file Ce1H10.dyn1
  Dielectric Tensor not found
  nqs=            1
 q=   0.00000000  0.00000000  0.00000000
  reading force constants from file Ce1H10.dyn2
  nqs=            8
 q=   0.11785113  0.11785113 -0.11785113
 q=   0.11785113 -0.11785113 -0.11785113
 q=   0.11785113  0.11785113  0.11785113
 q=  -0.11785113 -0.11785113  0.11785113
 q=  -0.11785113  0.11785113 -0.11785113
 q=  -0.11785113 -0.11785113 -0.11785113
 q=  -0.11785113  0.11785113  0.11785113
 q=   0.11785113 -0.11785113  0.11785113
  reading force constants from file Ce1H10.dyn3
  nqs=            8
 q=   0.23570226  0.23570226 -0.23570226
 q=   0.23570226 -0.23570226 -0.23570226
 q=   0.23570226  0.23570226  0.23570226
 q=  -0.23570226 -0.23570226  0.23570226
 q=  -0.23570226  0.23570226 -0.23570226
 q=  -0.23570226 -0.23570226 -0.23570226
 q=  -0.23570226  0.23570226  0.23570226
 q=   0.23570226 -0.23570226  0.23570226
  reading force constants from file Ce1H10.dyn4
  nqs=            4
 q=  -0.35355339 -0.35355339  0.35355339
 q=  -0.35355339  0.35355339  0.35355339
 q=  -0.35355339 -0.35355339 -0.35355339
 q=  -0.35355339  0.35355339 -0.35355339
  reading force constants from file Ce1H10.dyn5
  nqs=            6
 q=   0.23570226  0.00000000  0.00000000
 q=  -0.23570226  0.00000000  0.00000000
 q=   0.00000000  0.00000000  0.23570226
 q=   0.00000000  0.00000000 -0.23570226
 q=   0.00000000  0.23570226  0.00000000
 q=   0.00000000 -0.23570226  0.00000000
  reading force constants from file Ce1H10.dyn6
  nqs=           24
 q=   0.35355339  0.11785113 -0.11785113
 q=  -0.35355339  0.11785113  0.11785113
 q=   0.35355339  0.11785113  0.11785113
 q=   0.35355339 -0.11785113  0.11785113
 q=   0.35355339 -0.11785113 -0.11785113
 q=  -0.35355339 -0.11785113  0.11785113
 q=  -0.35355339  0.11785113 -0.11785113
 q=  -0.35355339 -0.11785113 -0.11785113
 q=   0.11785113 -0.11785113  0.35355339
 q=  -0.11785113 -0.11785113 -0.35355339
 q=  -0.11785113 -0.11785113  0.35355339
 q=  -0.11785113  0.11785113  0.35355339
 q=  -0.11785113  0.35355339  0.11785113
 q=  -0.11785113 -0.35355339 -0.11785113
 q=   0.11785113 -0.35355339  0.11785113
 q=  -0.11785113 -0.35355339  0.11785113
 q=   0.11785113 -0.35355339 -0.11785113
 q=   0.11785113  0.11785113 -0.35355339
 q=  -0.11785113  0.35355339 -0.11785113
 q=   0.11785113  0.35355339  0.11785113
 q=   0.11785113 -0.11785113 -0.35355339
 q=   0.11785113  0.35355339 -0.11785113
 q=  -0.11785113  0.11785113 -0.35355339
 q=   0.11785113  0.11785113  0.35355339
  reading force constants from file Ce1H10.dyn7
  nqs=           24
 q=  -0.23570226 -0.47140452  0.47140452
 q=   0.23570226 -0.47140452 -0.47140452
 q=  -0.23570226 -0.47140452 -0.47140452
 q=  -0.23570226  0.47140452 -0.47140452
 q=  -0.23570226  0.47140452  0.47140452
 q=   0.23570226  0.47140452 -0.47140452
 q=   0.23570226 -0.47140452  0.47140452
 q=   0.23570226  0.47140452  0.47140452
 q=  -0.47140452  0.47140452 -0.23570226
 q=   0.47140452  0.47140452  0.23570226
 q=   0.47140452  0.47140452 -0.23570226
 q=   0.47140452 -0.47140452 -0.23570226
 q=   0.47140452 -0.23570226 -0.47140452
 q=   0.47140452  0.23570226  0.47140452
 q=  -0.47140452  0.23570226 -0.47140452
 q=   0.47140452  0.23570226 -0.47140452
 q=  -0.47140452  0.23570226  0.47140452
 q=  -0.47140452 -0.47140452  0.23570226
 q=   0.47140452 -0.23570226  0.47140452
 q=  -0.47140452 -0.23570226 -0.47140452
 q=  -0.47140452  0.47140452  0.23570226
 q=  -0.47140452 -0.23570226  0.47140452
 q=   0.47140452 -0.47140452  0.23570226
 q=  -0.47140452 -0.47140452 -0.23570226
  reading force constants from file Ce1H10.dyn8
  nqs=           24
 q=  -0.11785113 -0.35355339  0.35355339
 q=   0.11785113 -0.35355339 -0.35355339
 q=  -0.11785113 -0.35355339 -0.35355339
 q=  -0.11785113  0.35355339 -0.35355339
 q=  -0.11785113  0.35355339  0.35355339
 q=   0.11785113  0.35355339 -0.35355339
 q=   0.11785113 -0.35355339  0.35355339
 q=   0.11785113  0.35355339  0.35355339
 q=  -0.35355339  0.35355339 -0.11785113
 q=   0.35355339  0.35355339  0.11785113
 q=   0.35355339  0.35355339 -0.11785113
 q=   0.35355339 -0.35355339 -0.11785113
 q=   0.35355339 -0.11785113 -0.35355339
 q=   0.35355339  0.11785113  0.35355339
 q=  -0.35355339  0.11785113 -0.35355339
 q=   0.35355339  0.11785113 -0.35355339
 q=  -0.35355339  0.11785113  0.35355339
 q=  -0.35355339 -0.35355339  0.11785113
 q=   0.35355339 -0.11785113  0.35355339
 q=  -0.35355339 -0.11785113 -0.35355339
 q=  -0.35355339  0.35355339  0.11785113
 q=  -0.35355339 -0.11785113  0.35355339
 q=   0.35355339 -0.35355339  0.11785113
 q=  -0.35355339 -0.35355339 -0.11785113
  reading force constants from file Ce1H10.dyn9
  nqs=           12
 q=   0.00000000 -0.23570226  0.23570226
 q=   0.00000000  0.23570226 -0.23570226
 q=   0.00000000  0.23570226  0.23570226
 q=   0.00000000 -0.23570226 -0.23570226
 q=  -0.23570226  0.23570226  0.00000000
 q=   0.23570226  0.23570226  0.00000000
 q=   0.23570226 -0.23570226  0.00000000
 q=   0.23570226  0.00000000 -0.23570226
 q=   0.23570226  0.00000000  0.23570226
 q=  -0.23570226  0.00000000 -0.23570226
 q=  -0.23570226  0.00000000  0.23570226
 q=  -0.23570226 -0.23570226  0.00000000
  reading force constants from file Ce1H10.dyn10
  nqs=            6
 q=   0.47140452  0.00000000  0.00000000
 q=  -0.47140452  0.00000000  0.00000000
 q=   0.00000000  0.00000000  0.47140452
 q=   0.00000000  0.00000000 -0.47140452
 q=   0.00000000  0.47140452  0.00000000
 q=   0.00000000 -0.47140452  0.00000000
  reading force constants from file Ce1H10.dyn11
  nqs=           24
 q=  -0.11785113 -0.58925565  0.58925565
 q=   0.11785113 -0.58925565 -0.58925565
 q=  -0.11785113 -0.58925565 -0.58925565
 q=  -0.11785113  0.58925565 -0.58925565
 q=  -0.11785113  0.58925565  0.58925565
 q=   0.11785113  0.58925565 -0.58925565
 q=   0.11785113 -0.58925565  0.58925565
 q=   0.11785113  0.58925565  0.58925565
 q=  -0.58925565  0.58925565 -0.11785113
 q=   0.58925565  0.58925565  0.11785113
 q=   0.58925565  0.58925565 -0.11785113
 q=   0.58925565 -0.58925565 -0.11785113
 q=   0.58925565 -0.11785113 -0.58925565
 q=   0.58925565  0.11785113  0.58925565
 q=  -0.58925565  0.11785113 -0.58925565
 q=   0.58925565  0.11785113 -0.58925565
 q=  -0.58925565  0.11785113  0.58925565
 q=  -0.58925565 -0.58925565  0.11785113
 q=   0.58925565 -0.11785113  0.58925565
 q=  -0.58925565 -0.11785113 -0.58925565
 q=  -0.58925565  0.58925565  0.11785113
 q=  -0.58925565 -0.11785113  0.58925565
 q=   0.58925565 -0.58925565  0.11785113
 q=  -0.58925565 -0.58925565 -0.11785113
  reading force constants from file Ce1H10.dyn12
  nqs=           12
 q=   0.00000000 -0.47140452  0.47140452
 q=   0.00000000  0.47140452 -0.47140452
 q=   0.00000000  0.47140452  0.47140452
 q=   0.00000000 -0.47140452 -0.47140452
 q=  -0.47140452  0.47140452  0.00000000
 q=   0.47140452  0.47140452  0.00000000
 q=   0.47140452 -0.47140452  0.00000000
 q=   0.47140452  0.00000000 -0.47140452
 q=   0.47140452  0.00000000  0.47140452
 q=  -0.47140452  0.00000000 -0.47140452
 q=  -0.47140452  0.00000000  0.47140452
 q=  -0.47140452 -0.47140452  0.00000000
  reading force constants from file Ce1H10.dyn13
  nqs=            3
 q=  -0.70710678  0.00000000  0.00000000
 q=   0.00000000  0.00000000 -0.70710678
 q=   0.00000000 -0.70710678  0.00000000
  reading force constants from file Ce1H10.dyn14
  nqs=           24
 q=  -0.23570226 -0.47140452  0.70710678
 q=   0.23570226 -0.47140452 -0.70710678
 q=  -0.23570226  0.47140452 -0.70710678
 q=  -0.23570226  0.70710678 -0.47140452
 q=  -0.23570226  0.70710678  0.47140452
 q=   0.23570226  0.47140452 -0.70710678
 q=   0.23570226 -0.70710678  0.47140452
 q=   0.23570226  0.70710678 -0.47140452
 q=  -0.47140452  0.70710678 -0.23570226
 q=   0.47140452  0.70710678  0.23570226
 q=   0.47140452  0.70710678 -0.23570226
 q=   0.70710678 -0.23570226 -0.47140452
 q=   0.70710678  0.23570226  0.47140452
 q=  -0.70710678  0.23570226 -0.47140452
 q=  -0.47140452  0.23570226  0.70710678
 q=  -0.70710678 -0.47140452  0.23570226
 q=  -0.47140452 -0.70710678  0.23570226
 q=   0.47140452 -0.23570226  0.70710678
 q=   0.47140452  0.23570226  0.70710678
 q=   0.70710678  0.47140452 -0.23570226
 q=  -0.47140452 -0.23570226 -0.70710678
 q=   0.70710678 -0.47140452 -0.23570226
 q=   0.70710678  0.47140452  0.23570226
 q=  -0.70710678 -0.23570226  0.47140452
  reading force constants from file Ce1H10.dyn15
  nqs=           24
 q=  -0.11785113 -0.35355339  0.58925565
 q=   0.11785113 -0.35355339 -0.58925565
 q=  -0.11785113 -0.35355339 -0.58925565
 q=  -0.11785113  0.35355339 -0.58925565
 q=  -0.11785113  0.58925565 -0.35355339
 q=  -0.11785113  0.58925565  0.35355339
 q=  -0.11785113 -0.58925565 -0.35355339
 q=   0.11785113  0.35355339 -0.58925565
 q=  -0.11785113 -0.58925565  0.35355339
 q=   0.11785113  0.35355339  0.58925565
 q=   0.11785113 -0.58925565  0.35355339
 q=  -0.11785113  0.35355339  0.58925565
 q=   0.11785113  0.58925565 -0.35355339
 q=   0.11785113 -0.58925565 -0.35355339
 q=   0.11785113  0.58925565  0.35355339
 q=  -0.35355339  0.58925565 -0.11785113
 q=   0.35355339  0.58925565  0.11785113
 q=   0.35355339  0.58925565 -0.11785113
 q=   0.35355339 -0.58925565 -0.11785113
 q=  -0.35355339 -0.58925565  0.11785113
 q=   0.35355339  0.11785113  0.58925565
 q=   0.11785113 -0.35355339  0.58925565
 q=   0.35355339 -0.11785113 -0.58925565
 q=  -0.35355339  0.11785113 -0.58925565
  reading force constants from file Ce1H10.dyn16
  nqs=           12
 q=  -0.70710678  0.23570226  0.00000000
 q=  -0.70710678 -0.23570226  0.00000000
 q=  -0.70710678  0.00000000  0.23570226
 q=  -0.70710678  0.00000000 -0.23570226
 q=   0.23570226  0.00000000 -0.70710678
 q=  -0.23570226  0.00000000  0.70710678
 q=   0.00000000 -0.70710678  0.23570226
 q=   0.00000000  0.70710678 -0.23570226
 q=   0.23570226  0.70710678  0.00000000
 q=   0.00000000  0.23570226  0.70710678
 q=  -0.23570226 -0.70710678  0.00000000
 q=   0.00000000 -0.23570226 -0.70710678

      q-space grid ok, #points =  216

      fft-check success (sum of imaginary terms < 10^-12)
 
   Preparing gamma for a2F 
 
 
 Broadening =      0.005
      q-space grid ok, #points =  216

      fft-check success (sum of imaginary terms < 10^-12)
 
 Broadening =      0.010
      q-space grid ok, #points =  216

      fft-check success (sum of imaginary terms < 10^-12)
 
 Broadening =      0.015
      q-space grid ok, #points =  216

      fft-check success (sum of imaginary terms < 10^-12)
 
 Broadening =      0.020
      q-space grid ok, #points =  216

      fft-check success (sum of imaginary terms < 10^-12)
 
 Broadening =      0.025
      q-space grid ok, #points =  216

      fft-check success (sum of imaginary terms < 10^-12)
 
 Broadening =      0.030
      q-space grid ok, #points =  216

      fft-check success (sum of imaginary terms < 10^-12)
 
 Broadening =      0.035
      q-space grid ok, #points =  216

      fft-check success (sum of imaginary terms < 10^-12)
 
 Broadening =      0.040
      q-space grid ok, #points =  216

      fft-check success (sum of imaginary terms < 10^-12)
 
 Broadening =      0.045
      q-space grid ok, #points =  216

      fft-check success (sum of imaginary terms < 10^-12)
 
 Broadening =      0.050
      q-space grid ok, #points =  216

      fft-check success (sum of imaginary terms < 10^-12)
 
     Q2R          :     19.27s CPU     46.01s WALL

 
   This run was terminated on:  16:19:21  24Oct2025            

=------------------------------------------------------------------------------=
   JOB DONE.
=------------------------------------------------------------------------------=
