
     Program PWSCF v.7.4.1 starts on 22Oct2025 at 10:27:48 

     This program is part of the open-source Quantum ESPRESSO suite
     for quantum simulation of materials; please cite
         "P. Giannozzi et al., J. Phys.:Condens. Matter 21 395502 (2009);
         "P. Giannozzi et al., J. Phys.:Condens. Matter 29 465901 (2017);
         "P. Giannozzi et al., J. Chem. Phys. 152 154105 (2020);
          URL http://www.quantum-espresso.org", 
     in publications or presentations arising from this work. More details at
     http://www.quantum-espresso.org/quote

     Parallel version (MPI), running on    48 processors

     MPI processes distributed on     1 nodes
     180832 MiB available memory on the printing compute node when the environment starts
 
     Waiting for input...
     Reading input from standard input

     Current dimensions of program PWSCF are:
     Max number of different atomic species (ntypx) = 10
     Max number of k-points (npk) =  40000
     Max angular momentum in pseudopotentials (lmaxx) =  4
     file Ce.paw.z_12.atompaw.wentzcovitch.v1.2.upf: wavefunction(s)  6S 0P 5D 0D 4F 0F renormalized
     file H.pbe-kjpaw_psl.1.0.0.UPF: wavefunction(s)  1S renormalized
     Message from routine setup:
     using ibrav=0 with symmetry is DISCOURAGED, use correct ibrav instead
 
     K-points division:     npool     =       4
     R & G space division:  proc/nbgrp/npool/nimage =      12
     Subspace diagonalization in iterative solution of the eigenvalue problem:
     a serial algorithm will be used

 
     Parallelization info
     --------------------
     sticks:   dense  smooth     PW     G-vecs:    dense   smooth      PW
     Min         226      76     22                 7730     1493     247
     Max         227      77     23                 7733     1495     249
     Sum        2713     913    271                92769    17933    2975
 
     Using Slab Decomposition
 


     bravais-lattice index     =            0
     lattice parameter (alat)  =       6.3833  a.u.
     unit-cell volume          =     183.9165 (a.u.)^3
     number of atoms/cell      =           11
     number of atomic types    =            2
     number of electrons       =        22.00
     number of Kohn-Sham states=           15
     kinetic-energy cutoff     =      80.0000  Ry
     charge density cutoff     =     960.0000  Ry
     scf convergence threshold =      1.0E-09
     mixing beta               =       0.7000
     number of iterations used =            8  plain     mixing
     Exchange-correlation= SLA  PW   PBX  PBC
                           (   1   4   3   4   0   0   0)

     celldm(1)=   6.383300  celldm(2)=   0.000000  celldm(3)=   0.000000
     celldm(4)=   0.000000  celldm(5)=   0.000000  celldm(6)=   0.000000

     crystal axes: (cart. coord. in units of alat)
               a(1) = (   0.000000   0.707107   0.707107 )  
               a(2) = (   0.707107   0.000000   0.707107 )  
               a(3) = (   0.707107   0.707107   0.000000 )  

     reciprocal axes: (cart. coord. in units 2 pi/alat)
               b(1) = ( -0.707107  0.707107  0.707107 )  
               b(2) = (  0.707107 -0.707107  0.707107 )  
               b(3) = (  0.707107  0.707107 -0.707107 )  


     PseudoPot. # 1 for Ce read from file:
     /work/home/mayuan/workplace/1.typical_hydride/003.MH10/2.CeH10/250/Tc-666-paw/pp/Ce.paw.z_12.atompaw.wentzcovitch.v1.2.upf
     MD5 check sum: 2241420ff980c77e0c917a2dc8a7e08e
     Pseudo is Projector augmented-wave + core cor, Zval = 12.0
     Generated using ATOMPAW code
     Shape of augmentation charge: BESSEL
     Using radial grid of 1102 points,  8 beta functions with: 
                l(1) =   0
                l(2) =   0
                l(3) =   1
                l(4) =   1
                l(5) =   2
                l(6) =   2
                l(7) =   3
                l(8) =   3
     Q(r) pseudized with 0 coefficients 


     PseudoPot. # 2 for H  read from file:
     /work/home/mayuan/workplace/1.typical_hydride/003.MH10/2.CeH10/250/Tc-666-paw/pp/H.pbe-kjpaw_psl.1.0.0.UPF
     MD5 check sum: 3bb27c602ede137025941d095c9090b7
     Pseudo is Projector augmented-wave, Zval =  1.0
     Generated using 'atomic' code by A. Dal Corso  v.7.1
     Shape of augmentation charge: PSQ
     Using radial grid of  929 points,  2 beta functions with: 
                l(1) =   0
                l(2) =   0
     Q(r) pseudized with 0 coefficients 


     atomic species   valence    mass     pseudopotential
     Ce               12.00   140.11600     Ce( 1.00)
     H                 1.00     1.00794     H ( 1.00)

     48 Sym. Ops., with inversion, found


                                    s                        frac. trans.

      isym =  1     identity                                     

 cryst.   s( 1) = (     1          0          0      )
                  (     0          1          0      )
                  (     0          0          1      )

 cart.    s( 1) = (  1.0000000  0.0000000  0.0000000 )
                  (  0.0000000  1.0000000  0.0000000 )
                  (  0.0000000  0.0000000  1.0000000 )


      isym =  2     180 deg rotation - cart. axis [0,0,1]        

 cryst.   s( 2) = (     0          1         -1      )
                  (     1          0         -1      )
                  (     0          0         -1      )

 cart.    s( 2) = ( -1.0000000  0.0000000  0.0000000 )
                  (  0.0000000 -1.0000000  0.0000000 )
                  (  0.0000000  0.0000000  1.0000000 )


      isym =  3     180 deg rotation - cart. axis [0,1,0]        

 cryst.   s( 3) = (     0         -1          1      )
                  (     0         -1          0      )
                  (     1         -1          0      )

 cart.    s( 3) = ( -1.0000000  0.0000000  0.0000000 )
                  (  0.0000000  1.0000000  0.0000000 )
                  (  0.0000000  0.0000000 -1.0000000 )


      isym =  4     180 deg rotation - cart. axis [1,0,0]        

 cryst.   s( 4) = (    -1          0          0      )
                  (    -1          0          1      )
                  (    -1          1          0      )

 cart.    s( 4) = (  1.0000000  0.0000000  0.0000000 )
                  (  0.0000000 -1.0000000  0.0000000 )
                  (  0.0000000  0.0000000 -1.0000000 )


      isym =  5     180 deg rotation - cart. axis [1,1,0]        

 cryst.   s( 5) = (    -1          0          1      )
                  (     0         -1          1      )
                  (     0          0          1      )

 cart.    s( 5) = (  0.0000000  1.0000000  0.0000000 )
                  (  1.0000000  0.0000000  0.0000000 )
                  (  0.0000000  0.0000000 -1.0000000 )


      isym =  6     180 deg rotation - cart. axis [1,-1,0]       

 cryst.   s( 6) = (     0         -1          0      )
                  (    -1          0          0      )
                  (     0          0         -1      )

 cart.    s( 6) = (  0.0000000 -1.0000000  0.0000000 )
                  ( -1.0000000  0.0000000  0.0000000 )
                  (  0.0000000  0.0000000 -1.0000000 )


      isym =  7      90 deg rotation - cart. axis [0,0,-1]       

 cryst.   s( 7) = (     0          1          0      )
                  (     0          1         -1      )
                  (    -1          1          0      )

 cart.    s( 7) = (  0.0000000  1.0000000  0.0000000 )
                  ( -1.0000000  0.0000000  0.0000000 )
                  (  0.0000000  0.0000000  1.0000000 )


      isym =  8      90 deg rotation - cart. axis [0,0,1]        

 cryst.   s( 8) = (     1          0         -1      )
                  (     1          0          0      )
                  (     1         -1          0      )

 cart.    s( 8) = (  0.0000000 -1.0000000  0.0000000 )
                  (  1.0000000  0.0000000  0.0000000 )
                  (  0.0000000  0.0000000  1.0000000 )


      isym =  9     180 deg rotation - cart. axis [1,0,1]        

 cryst.   s( 9) = (    -1          1          0      )
                  (     0          1          0      )
                  (     0          1         -1      )

 cart.    s( 9) = (  0.0000000  0.0000000  1.0000000 )
                  (  0.0000000 -1.0000000  0.0000000 )
                  (  1.0000000  0.0000000  0.0000000 )


      isym = 10     180 deg rotation - cart. axis [-1,0,1]       

 cryst.   s(10) = (     0          0         -1      )
                  (     0         -1          0      )
                  (    -1          0          0      )

 cart.    s(10) = (  0.0000000  0.0000000 -1.0000000 )
                  (  0.0000000 -1.0000000  0.0000000 )
                  ( -1.0000000  0.0000000  0.0000000 )


      isym = 11      90 deg rotation - cart. axis [0,1,0]        

 cryst.   s(11) = (     0          0          1      )
                  (    -1          0          1      )
                  (     0         -1          1      )

 cart.    s(11) = (  0.0000000  0.0000000  1.0000000 )
                  (  0.0000000  1.0000000  0.0000000 )
                  ( -1.0000000  0.0000000  0.0000000 )


      isym = 12      90 deg rotation - cart. axis [0,-1,0]       

 cryst.   s(12) = (     1         -1          0      )
                  (     1          0         -1      )
                  (     1          0          0      )

 cart.    s(12) = (  0.0000000  0.0000000 -1.0000000 )
                  (  0.0000000  1.0000000  0.0000000 )
                  (  1.0000000  0.0000000  0.0000000 )


      isym = 13     180 deg rotation - cart. axis [0,1,1]        

 cryst.   s(13) = (     1          0          0      )
                  (     1         -1          0      )
                  (     1          0         -1      )

 cart.    s(13) = ( -1.0000000  0.0000000  0.0000000 )
                  (  0.0000000  0.0000000  1.0000000 )
                  (  0.0000000  1.0000000  0.0000000 )


      isym = 14     180 deg rotation - cart. axis [0,1,-1]       

 cryst.   s(14) = (    -1          0          0      )
                  (     0          0         -1      )
                  (     0         -1          0      )

 cart.    s(14) = ( -1.0000000  0.0000000  0.0000000 )
                  (  0.0000000  0.0000000 -1.0000000 )
                  (  0.0000000 -1.0000000  0.0000000 )


      isym = 15      90 deg rotation - cart. axis [-1,0,0]       

 cryst.   s(15) = (     0         -1          1      )
                  (     0          0          1      )
                  (    -1          0          1      )

 cart.    s(15) = (  1.0000000  0.0000000  0.0000000 )
                  (  0.0000000  0.0000000  1.0000000 )
                  (  0.0000000 -1.0000000  0.0000000 )


      isym = 16      90 deg rotation - cart. axis [1,0,0]        

 cryst.   s(16) = (     0          1         -1      )
                  (    -1          1          0      )
                  (     0          1          0      )

 cart.    s(16) = (  1.0000000  0.0000000  0.0000000 )
                  (  0.0000000  0.0000000 -1.0000000 )
                  (  0.0000000  1.0000000  0.0000000 )


      isym = 17     120 deg rotation - cart. axis [-1,-1,-1]     

 cryst.   s(17) = (     0          0          1      )
                  (     1          0          0      )
                  (     0          1          0      )

 cart.    s(17) = (  0.0000000  1.0000000  0.0000000 )
                  (  0.0000000  0.0000000  1.0000000 )
                  (  1.0000000  0.0000000  0.0000000 )


      isym = 18     120 deg rotation - cart. axis [-1,1,1]       

 cryst.   s(18) = (     1         -1          0      )
                  (     0         -1          1      )
                  (     0         -1          0      )

 cart.    s(18) = (  0.0000000 -1.0000000  0.0000000 )
                  (  0.0000000  0.0000000  1.0000000 )
                  ( -1.0000000  0.0000000  0.0000000 )


      isym = 19     120 deg rotation - cart. axis [1,1,-1]       

 cryst.   s(19) = (    -1          1          0      )
                  (    -1          0          0      )
                  (    -1          0          1      )

 cart.    s(19) = (  0.0000000  1.0000000  0.0000000 )
                  (  0.0000000  0.0000000 -1.0000000 )
                  ( -1.0000000  0.0000000  0.0000000 )


      isym = 20     120 deg rotation - cart. axis [1,-1,1]       

 cryst.   s(20) = (     0          0         -1      )
                  (     0          1         -1      )
                  (     1          0         -1      )

 cart.    s(20) = (  0.0000000 -1.0000000  0.0000000 )
                  (  0.0000000  0.0000000 -1.0000000 )
                  (  1.0000000  0.0000000  0.0000000 )


      isym = 21     120 deg rotation - cart. axis [1,1,1]        

 cryst.   s(21) = (     0          1          0      )
                  (     0          0          1      )
                  (     1          0          0      )

 cart.    s(21) = (  0.0000000  0.0000000  1.0000000 )
                  (  1.0000000  0.0000000  0.0000000 )
                  (  0.0000000  1.0000000  0.0000000 )


      isym = 22     120 deg rotation - cart. axis [-1,1,-1]      

 cryst.   s(22) = (    -1          0          1      )
                  (    -1          1          0      )
                  (    -1          0          0      )

 cart.    s(22) = (  0.0000000  0.0000000  1.0000000 )
                  ( -1.0000000  0.0000000  0.0000000 )
                  (  0.0000000 -1.0000000  0.0000000 )


      isym = 23     120 deg rotation - cart. axis [1,-1,-1]      

 cryst.   s(23) = (     1          0         -1      )
                  (     0          0         -1      )
                  (     0          1         -1      )

 cart.    s(23) = (  0.0000000  0.0000000 -1.0000000 )
                  ( -1.0000000  0.0000000  0.0000000 )
                  (  0.0000000  1.0000000  0.0000000 )


      isym = 24     120 deg rotation - cart. axis [-1,-1,1]      

 cryst.   s(24) = (     0         -1          0      )
                  (     1         -1          0      )
                  (     0         -1          1      )

 cart.    s(24) = (  0.0000000  0.0000000 -1.0000000 )
                  (  1.0000000  0.0000000  0.0000000 )
                  (  0.0000000 -1.0000000  0.0000000 )


      isym = 25     inversion                                    

 cryst.   s(25) = (    -1          0          0      )
                  (     0         -1          0      )
                  (     0          0         -1      )

 cart.    s(25) = ( -1.0000000  0.0000000  0.0000000 )
                  (  0.0000000 -1.0000000  0.0000000 )
                  (  0.0000000  0.0000000 -1.0000000 )


      isym = 26     inv. 180 deg rotation - cart. axis [0,0,1]   

 cryst.   s(26) = (     0         -1          1      )
                  (    -1          0          1      )
                  (     0          0          1      )

 cart.    s(26) = (  1.0000000  0.0000000  0.0000000 )
                  (  0.0000000  1.0000000  0.0000000 )
                  (  0.0000000  0.0000000 -1.0000000 )


      isym = 27     inv. 180 deg rotation - cart. axis [0,1,0]   

 cryst.   s(27) = (     0          1         -1      )
                  (     0          1          0      )
                  (    -1          1          0      )

 cart.    s(27) = (  1.0000000  0.0000000  0.0000000 )
                  (  0.0000000 -1.0000000  0.0000000 )
                  (  0.0000000  0.0000000  1.0000000 )


      isym = 28     inv. 180 deg rotation - cart. axis [1,0,0]   

 cryst.   s(28) = (     1          0          0      )
                  (     1          0         -1      )
                  (     1         -1          0      )

 cart.    s(28) = ( -1.0000000  0.0000000  0.0000000 )
                  (  0.0000000  1.0000000  0.0000000 )
                  (  0.0000000  0.0000000  1.0000000 )


      isym = 29     inv. 180 deg rotation - cart. axis [1,1,0]   

 cryst.   s(29) = (     1          0         -1      )
                  (     0          1         -1      )
                  (     0          0         -1      )

 cart.    s(29) = (  0.0000000 -1.0000000  0.0000000 )
                  ( -1.0000000  0.0000000  0.0000000 )
                  (  0.0000000  0.0000000  1.0000000 )


      isym = 30     inv. 180 deg rotation - cart. axis [1,-1,0]  

 cryst.   s(30) = (     0          1          0      )
                  (     1          0          0      )
                  (     0          0          1      )

 cart.    s(30) = (  0.0000000  1.0000000  0.0000000 )
                  (  1.0000000  0.0000000  0.0000000 )
                  (  0.0000000  0.0000000  1.0000000 )


      isym = 31     inv.  90 deg rotation - cart. axis [0,0,-1]  

 cryst.   s(31) = (     0         -1          0      )
                  (     0         -1          1      )
                  (     1         -1          0      )

 cart.    s(31) = (  0.0000000 -1.0000000  0.0000000 )
                  (  1.0000000  0.0000000  0.0000000 )
                  (  0.0000000  0.0000000 -1.0000000 )


      isym = 32     inv.  90 deg rotation - cart. axis [0,0,1]   

 cryst.   s(32) = (    -1          0          1      )
                  (    -1          0          0      )
                  (    -1          1          0      )

 cart.    s(32) = (  0.0000000  1.0000000  0.0000000 )
                  ( -1.0000000  0.0000000  0.0000000 )
                  (  0.0000000  0.0000000 -1.0000000 )


      isym = 33     inv. 180 deg rotation - cart. axis [1,0,1]   

 cryst.   s(33) = (     1         -1          0      )
                  (     0         -1          0      )
                  (     0         -1          1      )

 cart.    s(33) = (  0.0000000  0.0000000 -1.0000000 )
                  (  0.0000000  1.0000000  0.0000000 )
                  ( -1.0000000  0.0000000  0.0000000 )


      isym = 34     inv. 180 deg rotation - cart. axis [-1,0,1]  

 cryst.   s(34) = (     0          0          1      )
                  (     0          1          0      )
                  (     1          0          0      )

 cart.    s(34) = (  0.0000000  0.0000000  1.0000000 )
                  (  0.0000000  1.0000000  0.0000000 )
                  (  1.0000000  0.0000000  0.0000000 )


      isym = 35     inv.  90 deg rotation - cart. axis [0,1,0]   

 cryst.   s(35) = (     0          0         -1      )
                  (     1          0         -1      )
                  (     0          1         -1      )

 cart.    s(35) = (  0.0000000  0.0000000 -1.0000000 )
                  (  0.0000000 -1.0000000  0.0000000 )
                  (  1.0000000  0.0000000  0.0000000 )


      isym = 36     inv.  90 deg rotation - cart. axis [0,-1,0]  

 cryst.   s(36) = (    -1          1          0      )
                  (    -1          0          1      )
                  (    -1          0          0      )

 cart.    s(36) = (  0.0000000  0.0000000  1.0000000 )
                  (  0.0000000 -1.0000000  0.0000000 )
                  ( -1.0000000  0.0000000  0.0000000 )


      isym = 37     inv. 180 deg rotation - cart. axis [0,1,1]   

 cryst.   s(37) = (    -1          0          0      )
                  (    -1          1          0      )
                  (    -1          0          1      )

 cart.    s(37) = (  1.0000000  0.0000000  0.0000000 )
                  (  0.0000000  0.0000000 -1.0000000 )
                  (  0.0000000 -1.0000000  0.0000000 )


      isym = 38     inv. 180 deg rotation - cart. axis [0,1,-1]  

 cryst.   s(38) = (     1          0          0      )
                  (     0          0          1      )
                  (     0          1          0      )

 cart.    s(38) = (  1.0000000  0.0000000  0.0000000 )
                  (  0.0000000  0.0000000  1.0000000 )
                  (  0.0000000  1.0000000  0.0000000 )


      isym = 39     inv.  90 deg rotation - cart. axis [-1,0,0]  

 cryst.   s(39) = (     0          1         -1      )
                  (     0          0         -1      )
                  (     1          0         -1      )

 cart.    s(39) = ( -1.0000000  0.0000000  0.0000000 )
                  (  0.0000000  0.0000000 -1.0000000 )
                  (  0.0000000  1.0000000  0.0000000 )


      isym = 40     inv.  90 deg rotation - cart. axis [1,0,0]   

 cryst.   s(40) = (     0         -1          1      )
                  (     1         -1          0      )
                  (     0         -1          0      )

 cart.    s(40) = ( -1.0000000  0.0000000  0.0000000 )
                  (  0.0000000  0.0000000  1.0000000 )
                  (  0.0000000 -1.0000000  0.0000000 )


      isym = 41     inv. 120 deg rotation - cart. axis [-1,-1,-1]

 cryst.   s(41) = (     0          0         -1      )
                  (    -1          0          0      )
                  (     0         -1          0      )

 cart.    s(41) = (  0.0000000 -1.0000000  0.0000000 )
                  (  0.0000000  0.0000000 -1.0000000 )
                  ( -1.0000000  0.0000000  0.0000000 )


      isym = 42     inv. 120 deg rotation - cart. axis [-1,1,1]  

 cryst.   s(42) = (    -1          1          0      )
                  (     0          1         -1      )
                  (     0          1          0      )

 cart.    s(42) = (  0.0000000  1.0000000  0.0000000 )
                  (  0.0000000  0.0000000 -1.0000000 )
                  (  1.0000000  0.0000000  0.0000000 )


      isym = 43     inv. 120 deg rotation - cart. axis [1,1,-1]  

 cryst.   s(43) = (     1         -1          0      )
                  (     1          0          0      )
                  (     1          0         -1      )

 cart.    s(43) = (  0.0000000 -1.0000000  0.0000000 )
                  (  0.0000000  0.0000000  1.0000000 )
                  (  1.0000000  0.0000000  0.0000000 )


      isym = 44     inv. 120 deg rotation - cart. axis [1,-1,1]  

 cryst.   s(44) = (     0          0          1      )
                  (     0         -1          1      )
                  (    -1          0          1      )

 cart.    s(44) = (  0.0000000  1.0000000  0.0000000 )
                  (  0.0000000  0.0000000  1.0000000 )
                  ( -1.0000000  0.0000000  0.0000000 )


      isym = 45     inv. 120 deg rotation - cart. axis [1,1,1]   

 cryst.   s(45) = (     0         -1          0      )
                  (     0          0         -1      )
                  (    -1          0          0      )

 cart.    s(45) = (  0.0000000  0.0000000 -1.0000000 )
                  ( -1.0000000  0.0000000  0.0000000 )
                  (  0.0000000 -1.0000000  0.0000000 )


      isym = 46     inv. 120 deg rotation - cart. axis [-1,1,-1] 

 cryst.   s(46) = (     1          0         -1      )
                  (     1         -1          0      )
                  (     1          0          0      )

 cart.    s(46) = (  0.0000000  0.0000000 -1.0000000 )
                  (  1.0000000  0.0000000  0.0000000 )
                  (  0.0000000  1.0000000  0.0000000 )


      isym = 47     inv. 120 deg rotation - cart. axis [1,-1,-1] 

 cryst.   s(47) = (    -1          0          1      )
                  (     0          0          1      )
                  (     0         -1          1      )

 cart.    s(47) = (  0.0000000  0.0000000  1.0000000 )
                  (  1.0000000  0.0000000  0.0000000 )
                  (  0.0000000 -1.0000000  0.0000000 )


      isym = 48     inv. 120 deg rotation - cart. axis [-1,-1,1] 

 cryst.   s(48) = (     0          1          0      )
                  (    -1          1          0      )
                  (     0          1         -1      )

 cart.    s(48) = (  0.0000000  0.0000000  1.0000000 )
                  ( -1.0000000  0.0000000  0.0000000 )
                  (  0.0000000  1.0000000  0.0000000 )


   Cartesian axes

     site n.     atom                  positions (alat units)
         1        Ce     tau(   1) = (   0.7071068   0.7071068   0.7071068  )
         2        H      tau(   2) = (   0.3535534   0.3535534   0.3535534  )
         3        H      tau(   3) = (   1.0606602   1.0606602   1.0606602  )
         4        H      tau(   4) = (   1.2411448   1.2411448   1.2411448  )
         5        H      tau(   5) = (   0.1730688   0.1730688   0.1730688  )
         6        H      tau(   6) = (   0.8801756   0.8801756   1.2411448  )
         7        H      tau(   7) = (   0.5340380   0.5340380   0.1730688  )
         8        H      tau(   8) = (   0.8801756   1.2411448   0.8801756  )
         9        H      tau(   9) = (   0.5340380   0.1730688   0.5340380  )
        10        H      tau(  10) = (   1.2411448   0.8801756   0.8801756  )
        11        H      tau(  11) = (   0.1730688   0.5340380   0.5340380  )

   Crystallographic axes

     site n.     atom                  positions (cryst. coord.)
         1        Ce     tau(   1) = (  0.5000000  0.5000000  0.5000000  )
         2        H      tau(   2) = (  0.2500000  0.2500000  0.2500000  )
         3        H      tau(   3) = (  0.7500000  0.7500000  0.7500000  )
         4        H      tau(   4) = (  0.8776219  0.8776219  0.8776219  )
         5        H      tau(   5) = (  0.1223781  0.1223781  0.1223781  )
         6        H      tau(   6) = (  0.8776219  0.8776219  0.3671344  )
         7        H      tau(   7) = (  0.1223781  0.1223781  0.6328656  )
         8        H      tau(   8) = (  0.8776219  0.3671344  0.8776219  )
         9        H      tau(   9) = (  0.1223781  0.6328656  0.1223781  )
        10        H      tau(  10) = (  0.3671344  0.8776219  0.8776219  )
        11        H      tau(  11) = (  0.6328656  0.1223781  0.1223781  )

     number of k points=    72  Gaussian smearing, width (Ry)=  0.0200
                       cart. coord. in units 2pi/alat
        k(    1) = (   0.0000000   0.0000000   0.0000000), wk =   0.0011574
        k(    2) = (   0.0589256   0.0589256  -0.0589256), wk =   0.0092593
        k(    3) = (   0.1178511   0.1178511  -0.1178511), wk =   0.0092593
        k(    4) = (   0.1767767   0.1767767  -0.1767767), wk =   0.0092593
        k(    5) = (   0.2357023   0.2357023  -0.2357023), wk =   0.0092593
        k(    6) = (   0.2946278   0.2946278  -0.2946278), wk =   0.0092593
        k(    7) = (  -0.3535534  -0.3535534   0.3535534), wk =   0.0046296
        k(    8) = (   0.1178511   0.0000000   0.0000000), wk =   0.0069444
        k(    9) = (   0.1767767   0.0589256  -0.0589256), wk =   0.0277778
        k(   10) = (   0.2357023   0.1178511  -0.1178511), wk =   0.0277778
        k(   11) = (   0.2946278   0.1767767  -0.1767767), wk =   0.0277778
        k(   12) = (   0.3535534   0.2357023  -0.2357023), wk =   0.0277778
        k(   13) = (  -0.2946278  -0.4124790   0.4124790), wk =   0.0277778
        k(   14) = (  -0.2357023  -0.3535534   0.3535534), wk =   0.0277778
        k(   15) = (  -0.1767767  -0.2946278   0.2946278), wk =   0.0277778
        k(   16) = (  -0.1178511  -0.2357023   0.2357023), wk =   0.0277778
        k(   17) = (  -0.0589256  -0.1767767   0.1767767), wk =   0.0277778
        k(   18) = (  -0.0000000  -0.1178511   0.1178511), wk =   0.0138889
        k(   19) = (   0.2357023   0.0000000   0.0000000), wk =   0.0069444
        k(   20) = (   0.2946278   0.0589256  -0.0589256), wk =   0.0277778
        k(   21) = (   0.3535534   0.1178511  -0.1178511), wk =   0.0277778
        k(   22) = (   0.4124790   0.1767767  -0.1767767), wk =   0.0277778
        k(   23) = (  -0.2357023  -0.4714045   0.4714045), wk =   0.0277778
        k(   24) = (  -0.1767767  -0.4124790   0.4124790), wk =   0.0277778
        k(   25) = (  -0.1178511  -0.3535534   0.3535534), wk =   0.0277778
        k(   26) = (  -0.0589256  -0.2946278   0.2946278), wk =   0.0277778
        k(   27) = (   0.0000000  -0.2357023   0.2357023), wk =   0.0138889
        k(   28) = (   0.3535534   0.0000000   0.0000000), wk =   0.0069444
        k(   29) = (   0.4124790   0.0589256  -0.0589256), wk =   0.0277778
        k(   30) = (   0.4714045   0.1178511  -0.1178511), wk =   0.0277778
        k(   31) = (  -0.1767767  -0.5303301   0.5303301), wk =   0.0277778
        k(   32) = (  -0.1178511  -0.4714045   0.4714045), wk =   0.0277778
        k(   33) = (  -0.0589256  -0.4124790   0.4124790), wk =   0.0277778
        k(   34) = (   0.0000000  -0.3535534   0.3535534), wk =   0.0138889
        k(   35) = (   0.4714045   0.0000000   0.0000000), wk =   0.0069444
        k(   36) = (   0.5303301   0.0589256  -0.0589256), wk =   0.0277778
        k(   37) = (  -0.1178511  -0.5892557   0.5892557), wk =   0.0277778
        k(   38) = (  -0.0589256  -0.5303301   0.5303301), wk =   0.0277778
        k(   39) = (  -0.0000000  -0.4714045   0.4714045), wk =   0.0138889
        k(   40) = (   0.5892557   0.0000000   0.0000000), wk =   0.0069444
        k(   41) = (  -0.0589256  -0.6481812   0.6481812), wk =   0.0277778
        k(   42) = (   0.0000000  -0.5892557   0.5892557), wk =   0.0138889
        k(   43) = (  -0.7071068   0.0000000   0.0000000), wk =   0.0034722
        k(   44) = (   0.2357023   0.1178511  -0.0000000), wk =   0.0277778
        k(   45) = (   0.2946278   0.1767767  -0.0589256), wk =   0.0555556
        k(   46) = (   0.3535534   0.2357023  -0.1178511), wk =   0.0555556
        k(   47) = (  -0.2946278  -0.4124790   0.5303301), wk =   0.0555556
        k(   48) = (  -0.2357023  -0.3535534   0.4714045), wk =   0.0277778
        k(   49) = (   0.3535534   0.1178511   0.0000000), wk =   0.0277778
        k(   50) = (   0.4124790   0.1767767  -0.0589256), wk =   0.0555556
        k(   51) = (  -0.2357023  -0.4714045   0.5892557), wk =   0.0555556
        k(   52) = (  -0.1767767  -0.4124790   0.5303301), wk =   0.0555556
        k(   53) = (  -0.1178511  -0.3535534   0.4714045), wk =   0.0555556
        k(   54) = (  -0.0589256  -0.2946278   0.4124790), wk =   0.0555556
        k(   55) = (   0.0000000  -0.2357023   0.3535534), wk =   0.0277778
        k(   56) = (   0.4714045   0.1178511   0.0000000), wk =   0.0277778
        k(   57) = (  -0.1767767  -0.5303301   0.6481812), wk =   0.0555556
        k(   58) = (  -0.1178511  -0.4714045   0.5892557), wk =   0.0555556
        k(   59) = (  -0.0589256  -0.4124790   0.5303301), wk =   0.0555556
        k(   60) = (  -0.0000000  -0.3535534   0.4714045), wk =   0.0277778
        k(   61) = (  -0.1178511  -0.5892557   0.7071068), wk =   0.0277778
        k(   62) = (  -0.0589256  -0.5303301   0.6481812), wk =   0.0555556
        k(   63) = (  -0.0000000  -0.4714045   0.5892557), wk =   0.0277778
        k(   64) = (  -0.7071068   0.1178511   0.0000000), wk =   0.0138889
        k(   65) = (  -0.2357023  -0.4714045   0.7071068), wk =   0.0277778
        k(   66) = (  -0.1767767  -0.4124790   0.6481812), wk =   0.0555556
        k(   67) = (  -0.1178511  -0.3535534   0.5892557), wk =   0.0277778
        k(   68) = (  -0.1178511  -0.4714045   0.7071068), wk =   0.0277778
        k(   69) = (  -0.0589256  -0.4124790   0.6481812), wk =   0.0555556
        k(   70) = (   0.0000000  -0.3535534   0.5892557), wk =   0.0277778
        k(   71) = (  -0.7071068   0.2357023   0.0000000), wk =   0.0138889
        k(   72) = (  -0.7071068   0.3535534   0.0000000), wk =   0.0069444

                       cryst. coord.
        k(    1) = (   0.0000000   0.0000000   0.0000000), wk =   0.0011574
        k(    2) = (   0.0000000   0.0000000   0.0833333), wk =   0.0092593
        k(    3) = (   0.0000000   0.0000000   0.1666667), wk =   0.0092593
        k(    4) = (   0.0000000   0.0000000   0.2500000), wk =   0.0092593
        k(    5) = (   0.0000000   0.0000000   0.3333333), wk =   0.0092593
        k(    6) = (   0.0000000   0.0000000   0.4166667), wk =   0.0092593
        k(    7) = (   0.0000000   0.0000000  -0.5000000), wk =   0.0046296
        k(    8) = (   0.0000000   0.0833333   0.0833333), wk =   0.0069444
        k(    9) = (   0.0000000   0.0833333   0.1666667), wk =   0.0277778
        k(   10) = (   0.0000000   0.0833333   0.2500000), wk =   0.0277778
        k(   11) = (   0.0000000   0.0833333   0.3333333), wk =   0.0277778
        k(   12) = (   0.0000000   0.0833333   0.4166667), wk =   0.0277778
        k(   13) = (   0.0000000   0.0833333  -0.5000000), wk =   0.0277778
        k(   14) = (   0.0000000   0.0833333  -0.4166667), wk =   0.0277778
        k(   15) = (   0.0000000   0.0833333  -0.3333333), wk =   0.0277778
        k(   16) = (   0.0000000   0.0833333  -0.2500000), wk =   0.0277778
        k(   17) = (   0.0000000   0.0833333  -0.1666667), wk =   0.0277778
        k(   18) = (   0.0000000   0.0833333  -0.0833333), wk =   0.0138889
        k(   19) = (   0.0000000   0.1666667   0.1666667), wk =   0.0069444
        k(   20) = (   0.0000000   0.1666667   0.2500000), wk =   0.0277778
        k(   21) = (   0.0000000   0.1666667   0.3333333), wk =   0.0277778
        k(   22) = (   0.0000000   0.1666667   0.4166667), wk =   0.0277778
        k(   23) = (   0.0000000   0.1666667  -0.5000000), wk =   0.0277778
        k(   24) = (   0.0000000   0.1666667  -0.4166667), wk =   0.0277778
        k(   25) = (   0.0000000   0.1666667  -0.3333333), wk =   0.0277778
        k(   26) = (   0.0000000   0.1666667  -0.2500000), wk =   0.0277778
        k(   27) = (   0.0000000   0.1666667  -0.1666667), wk =   0.0138889
        k(   28) = (   0.0000000   0.2500000   0.2500000), wk =   0.0069444
        k(   29) = (   0.0000000   0.2500000   0.3333333), wk =   0.0277778
        k(   30) = (   0.0000000   0.2500000   0.4166667), wk =   0.0277778
        k(   31) = (   0.0000000   0.2500000  -0.5000000), wk =   0.0277778
        k(   32) = (   0.0000000   0.2500000  -0.4166667), wk =   0.0277778
        k(   33) = (   0.0000000   0.2500000  -0.3333333), wk =   0.0277778
        k(   34) = (   0.0000000   0.2500000  -0.2500000), wk =   0.0138889
        k(   35) = (   0.0000000   0.3333333   0.3333333), wk =   0.0069444
        k(   36) = (   0.0000000   0.3333333   0.4166667), wk =   0.0277778
        k(   37) = (   0.0000000   0.3333333  -0.5000000), wk =   0.0277778
        k(   38) = (   0.0000000   0.3333333  -0.4166667), wk =   0.0277778
        k(   39) = (   0.0000000   0.3333333  -0.3333333), wk =   0.0138889
        k(   40) = (   0.0000000   0.4166667   0.4166667), wk =   0.0069444
        k(   41) = (   0.0000000   0.4166667  -0.5000000), wk =   0.0277778
        k(   42) = (   0.0000000   0.4166667  -0.4166667), wk =   0.0138889
        k(   43) = (   0.0000000  -0.5000000  -0.5000000), wk =   0.0034722
        k(   44) = (   0.0833333   0.1666667   0.2500000), wk =   0.0277778
        k(   45) = (   0.0833333   0.1666667   0.3333333), wk =   0.0555556
        k(   46) = (   0.0833333   0.1666667   0.4166667), wk =   0.0555556
        k(   47) = (   0.0833333   0.1666667  -0.5000000), wk =   0.0555556
        k(   48) = (   0.0833333   0.1666667  -0.4166667), wk =   0.0277778
        k(   49) = (   0.0833333   0.2500000   0.3333333), wk =   0.0277778
        k(   50) = (   0.0833333   0.2500000   0.4166667), wk =   0.0555556
        k(   51) = (   0.0833333   0.2500000  -0.5000000), wk =   0.0555556
        k(   52) = (   0.0833333   0.2500000  -0.4166667), wk =   0.0555556
        k(   53) = (   0.0833333   0.2500000  -0.3333333), wk =   0.0555556
        k(   54) = (   0.0833333   0.2500000  -0.2500000), wk =   0.0555556
        k(   55) = (   0.0833333   0.2500000  -0.1666667), wk =   0.0277778
        k(   56) = (   0.0833333   0.3333333   0.4166667), wk =   0.0277778
        k(   57) = (   0.0833333   0.3333333  -0.5000000), wk =   0.0555556
        k(   58) = (   0.0833333   0.3333333  -0.4166667), wk =   0.0555556
        k(   59) = (   0.0833333   0.3333333  -0.3333333), wk =   0.0555556
        k(   60) = (   0.0833333   0.3333333  -0.2500000), wk =   0.0277778
        k(   61) = (   0.0833333   0.4166667  -0.5000000), wk =   0.0277778
        k(   62) = (   0.0833333   0.4166667  -0.4166667), wk =   0.0555556
        k(   63) = (   0.0833333   0.4166667  -0.3333333), wk =   0.0277778
        k(   64) = (   0.0833333  -0.5000000  -0.4166667), wk =   0.0138889
        k(   65) = (   0.1666667   0.3333333  -0.5000000), wk =   0.0277778
        k(   66) = (   0.1666667   0.3333333  -0.4166667), wk =   0.0555556
        k(   67) = (   0.1666667   0.3333333  -0.3333333), wk =   0.0277778
        k(   68) = (   0.1666667   0.4166667  -0.4166667), wk =   0.0277778
        k(   69) = (   0.1666667   0.4166667  -0.3333333), wk =   0.0555556
        k(   70) = (   0.1666667   0.4166667  -0.2500000), wk =   0.0277778
        k(   71) = (   0.1666667  -0.5000000  -0.3333333), wk =   0.0138889
        k(   72) = (   0.2500000  -0.5000000  -0.2500000), wk =   0.0069444

     Dense  grid:    92769 G-vectors     FFT dimensions: (  64,  64,  64)

     Smooth grid:    17933 G-vectors     FFT dimensions: (  40,  40,  40)

     Dynamical RAM for                 wfc:       0.04 MB

     Dynamical RAM for     wfc (w. buffer):       0.80 MB

     Dynamical RAM for           str. fact:       0.24 MB

     Dynamical RAM for           local pot:       0.00 MB

     Dynamical RAM for          nlocal pot:       0.15 MB

     Dynamical RAM for                qrad:      11.93 MB

     Dynamical RAM for          rho,v,vnew:       0.92 MB

     Dynamical RAM for               rhoin:       0.31 MB

     Dynamical RAM for            rho*nmix:       1.89 MB

     Dynamical RAM for           G-vectors:       0.45 MB

     Dynamical RAM for          h,s,v(r/c):       0.04 MB

     Dynamical RAM for          <psi|beta>:       0.01 MB

     Dynamical RAM for                 psi:       0.08 MB

     Dynamical RAM for                hpsi:       0.08 MB

     Dynamical RAM for                spsi:       0.08 MB

     Dynamical RAM for      wfcinit/wfcrot:       0.09 MB

     Dynamical RAM for           addusdens:      16.74 MB

     Dynamical RAM for          addusforce:      17.37 MB

     Dynamical RAM for         addusstress:      17.20 MB

     Estimated static dynamical RAM per process >      16.08 MB

     Estimated max dynamical RAM per process >      35.34 MB

     Estimated total dynamical RAM >       1.59 GB

     Initial potential from superposition of free atoms

     starting charge      21.9929, renormalised to      22.0000
     Starting wfcs are   42 randomized atomic wfcs
     Checking if some PAW data can be deallocated... 
       PAW data deallocated on   43 nodes for type:  1
       PAW data deallocated on    5 nodes for type:  2

     total cpu time spent up to now is        5.9 secs

     Self-consistent Calculation

     iteration #  1     ecut=    80.00 Ry     beta= 0.70
     Davidson diagonalization with overlap

---- Real-time Memory Report at c_bands before calling an iterative solver
           154 MiB given to the printing process from OS
             0 MiB allocation reported by mallinfo(arena+hblkhd)
        179007 MiB available memory on the node where the printing process lives
------------------
     ethr =  1.00E-02,  avg # of iterations =  2.0

     total cpu time spent up to now is        6.4 secs

     total energy              =    -492.37434694 Ry
     estimated scf accuracy    <       0.36846636 Ry

     iteration #  2     ecut=    80.00 Ry     beta= 0.70
     Davidson diagonalization with overlap

---- Real-time Memory Report at c_bands before calling an iterative solver
           163 MiB given to the printing process from OS
             0 MiB allocation reported by mallinfo(arena+hblkhd)
        178241 MiB available memory on the node where the printing process lives
------------------
     ethr =  1.67E-03,  avg # of iterations =  5.6

     total cpu time spent up to now is        6.9 secs

     total energy              =    -492.09980261 Ry
     estimated scf accuracy    <       1.80549014 Ry

     iteration #  3     ecut=    80.00 Ry     beta= 0.70
     Davidson diagonalization with overlap

---- Real-time Memory Report at c_bands before calling an iterative solver
           167 MiB given to the printing process from OS
             0 MiB allocation reported by mallinfo(arena+hblkhd)
        178228 MiB available memory on the node where the printing process lives
------------------
     ethr =  1.67E-03,  avg # of iterations =  6.4

     total cpu time spent up to now is        7.4 secs

     total energy              =    -492.53570911 Ry
     estimated scf accuracy    <       0.12253743 Ry

     iteration #  4     ecut=    80.00 Ry     beta= 0.70
     Davidson diagonalization with overlap

---- Real-time Memory Report at c_bands before calling an iterative solver
           169 MiB given to the printing process from OS
             0 MiB allocation reported by mallinfo(arena+hblkhd)
        178221 MiB available memory on the node where the printing process lives
------------------
     ethr =  5.57E-04,  avg # of iterations =  2.7

     total cpu time spent up to now is        7.9 secs

     total energy              =    -492.53399249 Ry
     estimated scf accuracy    <       0.02923455 Ry

     iteration #  5     ecut=    80.00 Ry     beta= 0.70
     Davidson diagonalization with overlap

---- Real-time Memory Report at c_bands before calling an iterative solver
           171 MiB given to the printing process from OS
             0 MiB allocation reported by mallinfo(arena+hblkhd)
        178221 MiB available memory on the node where the printing process lives
------------------
     ethr =  1.33E-04,  avg # of iterations =  4.4

     total cpu time spent up to now is        8.3 secs

     total energy              =    -492.54290588 Ry
     estimated scf accuracy    <       0.00075091 Ry

     iteration #  6     ecut=    80.00 Ry     beta= 0.70
     Davidson diagonalization with overlap

---- Real-time Memory Report at c_bands before calling an iterative solver
           173 MiB given to the printing process from OS
             0 MiB allocation reported by mallinfo(arena+hblkhd)
        178218 MiB available memory on the node where the printing process lives
------------------
     ethr =  3.41E-06,  avg # of iterations =  6.8

     total cpu time spent up to now is        8.9 secs

     total energy              =    -492.54341810 Ry
     estimated scf accuracy    <       0.00052392 Ry

     iteration #  7     ecut=    80.00 Ry     beta= 0.70
     Davidson diagonalization with overlap

---- Real-time Memory Report at c_bands before calling an iterative solver
           174 MiB given to the printing process from OS
             0 MiB allocation reported by mallinfo(arena+hblkhd)
        178218 MiB available memory on the node where the printing process lives
------------------
     ethr =  2.38E-06,  avg # of iterations =  1.7

     total cpu time spent up to now is        9.3 secs

     total energy              =    -492.54357383 Ry
     estimated scf accuracy    <       0.00036452 Ry

     iteration #  8     ecut=    80.00 Ry     beta= 0.70
     Davidson diagonalization with overlap

---- Real-time Memory Report at c_bands before calling an iterative solver
           176 MiB given to the printing process from OS
             0 MiB allocation reported by mallinfo(arena+hblkhd)
        178217 MiB available memory on the node where the printing process lives
------------------
     ethr =  1.66E-06,  avg # of iterations =  2.4

     total cpu time spent up to now is        9.7 secs

     total energy              =    -492.54321013 Ry
     estimated scf accuracy    <       0.00099101 Ry

     iteration #  9     ecut=    80.00 Ry     beta= 0.70
     Davidson diagonalization with overlap

---- Real-time Memory Report at c_bands before calling an iterative solver
           178 MiB given to the printing process from OS
             0 MiB allocation reported by mallinfo(arena+hblkhd)
        178215 MiB available memory on the node where the printing process lives
------------------
     ethr =  1.66E-06,  avg # of iterations =  4.6

     total cpu time spent up to now is       10.2 secs

     total energy              =    -492.54339417 Ry
     estimated scf accuracy    <       0.00001551 Ry

     iteration # 10     ecut=    80.00 Ry     beta= 0.70
     Davidson diagonalization with overlap

---- Real-time Memory Report at c_bands before calling an iterative solver
           180 MiB given to the printing process from OS
             0 MiB allocation reported by mallinfo(arena+hblkhd)
        178212 MiB available memory on the node where the printing process lives
------------------
     ethr =  7.05E-08,  avg # of iterations =  3.7

     total cpu time spent up to now is       10.6 secs

     total energy              =    -492.54339568 Ry
     estimated scf accuracy    <       0.00001346 Ry

     iteration # 11     ecut=    80.00 Ry     beta= 0.70
     Davidson diagonalization with overlap

---- Real-time Memory Report at c_bands before calling an iterative solver
           181 MiB given to the printing process from OS
             0 MiB allocation reported by mallinfo(arena+hblkhd)
        178212 MiB available memory on the node where the printing process lives
------------------
     ethr =  6.12E-08,  avg # of iterations =  1.1

     total cpu time spent up to now is       11.0 secs

     total energy              =    -492.54339517 Ry
     estimated scf accuracy    <       0.00001008 Ry

     iteration # 12     ecut=    80.00 Ry     beta= 0.70
     Davidson diagonalization with overlap

---- Real-time Memory Report at c_bands before calling an iterative solver
           182 MiB given to the printing process from OS
             0 MiB allocation reported by mallinfo(arena+hblkhd)
        178211 MiB available memory on the node where the printing process lives
------------------
     ethr =  4.58E-08,  avg # of iterations =  1.3

     total cpu time spent up to now is       11.4 secs

     total energy              =    -492.54339272 Ry
     estimated scf accuracy    <       0.00000687 Ry

     iteration # 13     ecut=    80.00 Ry     beta= 0.70
     Davidson diagonalization with overlap

---- Real-time Memory Report at c_bands before calling an iterative solver
           184 MiB given to the printing process from OS
             0 MiB allocation reported by mallinfo(arena+hblkhd)
        178211 MiB available memory on the node where the printing process lives
------------------
     ethr =  3.12E-08,  avg # of iterations =  4.1

     total cpu time spent up to now is       11.9 secs

     total energy              =    -492.54339433 Ry
     estimated scf accuracy    <       0.00000012 Ry

     iteration # 14     ecut=    80.00 Ry     beta= 0.70
     Davidson diagonalization with overlap

---- Real-time Memory Report at c_bands before calling an iterative solver
           185 MiB given to the printing process from OS
             0 MiB allocation reported by mallinfo(arena+hblkhd)
        178212 MiB available memory on the node where the printing process lives
------------------
     ethr =  5.43E-10,  avg # of iterations =  5.1

     total cpu time spent up to now is       12.4 secs

     total energy              =    -492.54339434 Ry
     estimated scf accuracy    <       0.00000023 Ry

     iteration # 15     ecut=    80.00 Ry     beta= 0.70
     Davidson diagonalization with overlap

---- Real-time Memory Report at c_bands before calling an iterative solver
           187 MiB given to the printing process from OS
             0 MiB allocation reported by mallinfo(arena+hblkhd)
        178212 MiB available memory on the node where the printing process lives
------------------
     ethr =  5.43E-10,  avg # of iterations =  5.2

     total cpu time spent up to now is       12.9 secs

     total energy              =    -492.54339442 Ry
     estimated scf accuracy    <       0.00000009 Ry

     iteration # 16     ecut=    80.00 Ry     beta= 0.70
     Davidson diagonalization with overlap

---- Real-time Memory Report at c_bands before calling an iterative solver
           188 MiB given to the printing process from OS
             0 MiB allocation reported by mallinfo(arena+hblkhd)
        178212 MiB available memory on the node where the printing process lives
------------------
     ethr =  4.14E-10,  avg # of iterations =  1.1

     total cpu time spent up to now is       13.3 secs

     total energy              =    -492.54339440 Ry
     estimated scf accuracy    <       0.00000005 Ry

     iteration # 17     ecut=    80.00 Ry     beta= 0.70
     Davidson diagonalization with overlap

---- Real-time Memory Report at c_bands before calling an iterative solver
           190 MiB given to the printing process from OS
             0 MiB allocation reported by mallinfo(arena+hblkhd)
        178212 MiB available memory on the node where the printing process lives
------------------
     ethr =  2.25E-10,  avg # of iterations =  4.6

     total cpu time spent up to now is       13.7 secs

     total energy              =    -492.54339441 Ry
     estimated scf accuracy    <       0.00000002 Ry

     iteration # 18     ecut=    80.00 Ry     beta= 0.70
     Davidson diagonalization with overlap

---- Real-time Memory Report at c_bands before calling an iterative solver
           191 MiB given to the printing process from OS
             0 MiB allocation reported by mallinfo(arena+hblkhd)
        178212 MiB available memory on the node where the printing process lives
------------------
     ethr =  7.92E-11,  avg # of iterations =  3.6

     total cpu time spent up to now is       14.3 secs

     End of self-consistent calculation

          k = 0.0000 0.0000 0.0000 (  2229 PWs)   bands (ev):

   -13.8245   4.1833   5.1201   5.1201   5.1201  11.6259  15.5982  15.5982
    15.5982  15.9192  15.9192  15.9192  20.5642  22.6430  22.6430

     occupation numbers 
     1.0000   1.0000   1.0000   1.0000   1.0000   1.0000   1.0000   1.0000
     1.0000   1.0000   1.0000   1.0000   1.0000   0.0023   0.0023

          k = 0.0589 0.0589-0.0589 (  2199 PWs)   bands (ev):

   -13.7526   2.9750   5.0805   5.0805   6.2129  11.1493  14.9961  15.2771
    15.2771  16.1522  16.1522  16.9342  21.3664  22.9229  22.9229

     occupation numbers 
     1.0000   1.0000   1.0000   1.0000   1.0000   1.0000   1.0000   1.0000
     1.0000   1.0000   1.0000   1.0000   0.9999   0.0000   0.0000

          k = 0.1179 0.1179-0.1179 (  2202 PWs)   bands (ev):

   -13.5474   1.4139   4.9784   4.9784   7.2079  10.7539  13.9230  14.5393
    14.5393  16.8199  16.8199  18.9550  23.0619  23.3823  23.3823

     occupation numbers 
     1.0000   1.0000   1.0000   1.0000   1.0000   1.0000   1.0000   1.0000
     1.0000   1.0000   1.0000   1.0000   0.0000   0.0000   0.0000

          k = 0.1768 0.1768-0.1768 (  2208 PWs)   bands (ev):

   -13.2435  -0.0491   4.8512   4.8512   7.2990  11.4391  12.9403  13.7310
    13.7310  17.8304  17.8304  21.0725  23.6516  23.6516  24.2845

     occupation numbers 
     1.0000   1.0000   1.0000   1.0000   1.0000   1.0000   1.0000   1.0000
     1.0000   1.0000   1.0000   1.0000   0.0000   0.0000   0.0000

          k = 0.2357 0.2357-0.2357 (  2205 PWs)   bands (ev):

   -12.9051  -1.2698   4.7367   4.7367   6.9577  11.9292  13.0539  13.0579
    13.0579  19.0176  19.0176  22.6098  23.7940  23.7940  24.2983

     occupation numbers 
     1.0000   1.0000   1.0000   1.0000   1.0000   1.0000   1.0000   1.0000
     1.0000   1.0000   1.0000   0.0039   0.0000   0.0000   0.0000

          k = 0.2946 0.2946-0.2946 (  2214 PWs)   bands (ev):

   -12.6293  -2.0968   4.6600   4.6600   6.6744  11.5079  12.6221  12.6221
    14.3100  20.0712  20.0712  23.2399  23.8807  23.8807  24.3126

     occupation numbers 
     1.0000   1.0000   1.0000   1.0000   1.0000   1.0000   1.0000   1.0000
     1.0000   1.0000   1.0000   0.0000   0.0000   0.0000   0.0000

          k =-0.3536-0.3536 0.3536 (  2252 PWs)   bands (ev):

   -12.5210  -2.3925   4.6334   4.6334   6.5733  11.3477  12.4719  12.4719
    14.8903  20.5141  20.5141  23.2124  23.9133  23.9133  24.0022

     occupation numbers 
     1.0000   1.0000   1.0000   1.0000   1.0000   1.0000   1.0000   1.0000
     1.0000   1.0000   1.0000   0.0000   0.0000   0.0000   0.0000

          k = 0.1179 0.0000 0.0000 (  2193 PWs)   bands (ev):

   -13.7287   2.8379   4.9164   4.9164   6.6381  10.9443  14.3644  15.2547
    15.2547  16.5654  16.8900  16.8900  21.2477  22.6696  23.3655

     occupation numbers 
     1.0000   1.0000   1.0000   1.0000   1.0000   1.0000   1.0000   1.0000
     1.0000   1.0000   1.0000   1.0000   1.0000   0.0015   0.0000

          k = 0.1768 0.0589-0.0589 (  2202 PWs)   bands (ev):

   -13.5680   1.7112   4.7138   4.7719   7.6297  10.4162  13.0516  15.0209
    15.3508  16.6512  17.6032  18.5631  22.2119  22.9363  23.8731

     occupation numbers 
     1.0000   1.0000   1.0000   1.0000   1.0000   1.0000   1.0000   1.0000
     1.0000   1.0000   1.0000   1.0000   0.2780   0.0000   0.0000

          k = 0.2357 0.1179-0.1179 (  2208 PWs)   bands (ev):

   -13.2966   0.3689   4.5328   4.5472   8.0700  10.7198  11.9167  14.4667
    15.0311  17.1437  18.5111  20.5953  23.3242  23.4225  24.3713

     occupation numbers 
     1.0000   1.0000   1.0000   1.0000   1.0000   1.0000   1.0000   1.0000
     1.0000   1.0000   1.0000   1.0000   0.0000   0.0000   0.0000

          k = 0.2946 0.1768-0.1768 (  2213 PWs)   bands (ev):

   -12.9676  -0.8609   4.2386   4.4189   7.8759  10.9393  12.1082  13.7949
    14.5072  18.1227  19.5673  22.2750  23.5696  23.7960  24.3112

     occupation numbers 
     1.0000   1.0000   1.0000   1.0000   1.0000   1.0000   1.0000   1.0000
     1.0000   1.0000   1.0000   0.1796   0.0000   0.0000   0.0000

          k = 0.3536 0.2357-0.2357 (  2226 PWs)   bands (ev):

   -12.6664  -1.7873   3.9396   4.3953   7.6370  10.4081  13.2091  13.5095
    14.1752  19.0985  20.4261  23.1941  23.7357  23.8896  24.3035

     occupation numbers 
     1.0000   1.0000   1.0000   1.0000   1.0000   1.0000   1.0000   1.0000
     1.0000   1.0000   1.0000   0.0000   0.0000   0.0000   0.0000

          k =-0.2946-0.4125 0.4125 (  2219 PWs)   bands (ev):

   -12.4975  -2.2501   3.7211   4.4640   7.5205  10.1783  12.8223  13.9359
    14.6339  19.6569  20.6031  23.6098  23.8601  23.9336  24.1205

     occupation numbers 
     1.0000   1.0000   1.0000   1.0000   1.0000   1.0000   1.0000   1.0000
     1.0000   1.0000   1.0000   0.0000   0.0000   0.0000   0.0000

          k =-0.2357-0.3536 0.3536 (  2222 PWs)   bands (ev):

   -12.5337  -2.1539   3.6236   4.6077   7.5548  10.2793  12.6949  13.9605
    14.5835  19.9219  19.9699  23.5986  23.8319  23.9188  24.2873

     occupation numbers 
     1.0000   1.0000   1.0000   1.0000   1.0000   1.0000   1.0000   1.0000
     1.0000   1.0000   1.0000   0.0000   0.0000   0.0000   0.0000

          k =-0.1768-0.2946 0.2946 (  2214 PWs)   bands (ev):

   -12.7582  -1.5214   3.6690   4.7939   7.7359  10.7120  12.8577  13.0694
    14.6609  18.7337  19.9055  23.0580  23.6546  23.9080  24.2870

     occupation numbers 
     1.0000   1.0000   1.0000   1.0000   1.0000   1.0000   1.0000   1.0000
     1.0000   1.0000   1.0000   0.0000   0.0000   0.0000   0.0000

          k =-0.1179-0.2357 0.2357 (  2207 PWs)   bands (ev):

   -13.0801  -0.4813   3.8648   4.9786   8.0015  11.4122  11.6773  13.3140
    15.1702  17.4963  19.1328  21.8869  23.3964  23.8437  24.2950

     occupation numbers 
     1.0000   1.0000   1.0000   1.0000   1.0000   1.0000   1.0000   1.0000
     1.0000   1.0000   1.0000   0.8644   0.0000   0.0000   0.0000

          k =-0.0589-0.1768 0.1768 (  2219 PWs)   bands (ev):

   -13.3976   0.7865   4.2023   5.1128   7.9993  10.5870  12.5156  14.0290
    15.6726  16.4900  18.0152  20.1224  22.8105  23.7093  24.0330

     occupation numbers 
     1.0000   1.0000   1.0000   1.0000   1.0000   1.0000   1.0000   1.0000
     1.0000   1.0000   1.0000   1.0000   0.0001   0.0000   0.0000

          k =-0.0000-0.1179 0.1179 (  2199 PWs)   bands (ev):

   -13.6362   2.0613   4.6541   5.1530   7.1548  10.6851  13.7695  14.8754
    15.7655  15.8954  16.9284  18.2630  21.9491  23.2400  23.4095

     occupation numbers 
     1.0000   1.0000   1.0000   1.0000   1.0000   1.0000   1.0000   1.0000
     1.0000   1.0000   1.0000   1.0000   0.7814   0.0000   0.0000

          k = 0.2357 0.0000 0.0000 (  2213 PWs)   bands (ev):

   -13.4561   1.3717   4.4097   4.4097   8.3477   9.7616  12.0811  15.3408
    15.3408  18.5245  18.5245  18.5665  21.9840  22.7351  24.2970

     occupation numbers 
     1.0000   1.0000   1.0000   1.0000   1.0000   1.0000   1.0000   1.0000
     1.0000   1.0000   1.0000   1.0000   0.7242   0.0005   0.0000

          k = 0.2946 0.0589-0.0589 (  2219 PWs)   bands (ev):

   -13.2298   0.5124   4.0541   4.1487   8.6568   9.5292  11.4434  15.2830
    15.6188  18.4733  19.4297  20.5115  22.8182  22.9587  24.4302

     occupation numbers 
     1.0000   1.0000   1.0000   1.0000   1.0000   1.0000   1.0000   1.0000
     1.0000   1.0000   1.0000   1.0000   0.0001   0.0000   0.0000

          k = 0.3536 0.1179-0.1179 (  2224 PWs)   bands (ev):

   -12.9321  -0.4772   3.5047   3.9869   8.3383  10.0071  11.4021  14.8517
    15.8652  18.5986  20.3271  22.1102  23.2721  23.5860  24.3976

     occupation numbers 
     1.0000   1.0000   1.0000   1.0000   1.0000   1.0000   1.0000   1.0000
     1.0000   1.0000   1.0000   0.4759   0.0000   0.0000   0.0000

          k = 0.4125 0.1768-0.1768 (  2228 PWs)   bands (ev):

   -12.6346  -1.3296   2.9145   3.9532   8.0348  10.0946  12.3399  14.2780
    15.9107  18.9107  20.9523  23.1058  23.5168  23.8212  24.3486

     occupation numbers 
     1.0000   1.0000   1.0000   1.0000   1.0000   1.0000   1.0000   1.0000
     1.0000   1.0000   1.0000   0.0000   0.0000   0.0000   0.0000

          k =-0.2357-0.4714 0.4714 (  2231 PWs)   bands (ev):

   -12.4310  -1.8526   2.4436   4.0528   7.9685   9.9480  13.5874  13.7540
    15.9289  18.8505  20.8694  23.6280  23.7253  23.8819  24.2981

     occupation numbers 
     1.0000   1.0000   1.0000   1.0000   1.0000   1.0000   1.0000   1.0000
     1.0000   1.0000   1.0000   0.0000   0.0000   0.0000   0.0000

          k =-0.1768-0.4125 0.4125 (  2226 PWs)   bands (ev):

   -12.4014  -1.9217   2.1765   4.2683   8.1848   9.8532  13.3837  13.9881
    16.1733  18.7686  20.0087  23.6504  23.8699  23.9218  24.2568

     occupation numbers 
     1.0000   1.0000   1.0000   1.0000   1.0000   1.0000   1.0000   1.0000
     1.0000   1.0000   1.0000   0.0000   0.0000   0.0000   0.0000

          k =-0.1179-0.3536 0.3536 (  2218 PWs)   bands (ev):

   -12.5586  -1.5317   2.1721   4.5578   8.6604   9.9138  12.9900  13.2199
    16.6139  18.7677  19.2895  23.3805  23.6897  23.9334  24.2421

     occupation numbers 
     1.0000   1.0000   1.0000   1.0000   1.0000   1.0000   1.0000   1.0000
     1.0000   1.0000   1.0000   0.0000   0.0000   0.0000   0.0000

          k =-0.0589-0.2946 0.2946 (  2221 PWs)   bands (ev):

   -12.8376  -0.8156   2.4956   4.8526   9.2304  10.2680  11.4792  13.2861
    16.9200  17.5924  19.4759  22.9022  23.1991  23.9268  24.2636

     occupation numbers 
     1.0000   1.0000   1.0000   1.0000   1.0000   1.0000   1.0000   1.0000
     1.0000   1.0000   1.0000   0.0000   0.0000   0.0000   0.0000

          k = 0.0000-0.2357 0.2357 (  2215 PWs)   bands (ev):

   -13.1439   0.0137   3.2016   5.0638   9.1644  10.4419  11.1671  13.5754
    16.7208  16.7714  18.8800  21.8047  22.7884  23.8629  24.3014

     occupation numbers 
     1.0000   1.0000   1.0000   1.0000   1.0000   1.0000   1.0000   1.0000
     1.0000   1.0000   1.0000   0.9367   0.0002   0.0000   0.0000

          k = 0.3536 0.0000 0.0000 (  2221 PWs)   bands (ev):

   -13.0546   0.1847   3.8076   3.8076   8.0296   8.6994  12.0673  15.8467
    15.8467  20.4056  20.4056  20.8049  22.6953  22.8113  24.6078

     occupation numbers 
     1.0000   1.0000   1.0000   1.0000   1.0000   1.0000   1.0000   1.0000
     1.0000   1.0000   1.0000   1.0000   0.0010   0.0001   0.0000

          k = 0.4125 0.0589-0.0589 (  2222 PWs)   bands (ev):

   -12.8048  -0.4077   3.2713   3.5788   7.4123   8.6760  12.5668  15.9109
    16.3126  20.4435  21.2132  22.2478  22.9938  23.2981  24.6049

     occupation numbers 
     1.0000   1.0000   1.0000   1.0000   1.0000   1.0000   1.0000   1.0000
     1.0000   1.0000   1.0000   0.2191   0.0000   0.0000   0.0000

          k = 0.4714 0.1179-0.1179 (  2213 PWs)   bands (ev):

   -12.5386  -0.9754   2.3693   3.4983   7.0794   9.4993  12.7046  15.5521
    16.8014  20.1873  21.6072  23.1353  23.3011  23.7067  24.4879

     occupation numbers 
     1.0000   1.0000   1.0000   1.0000   1.0000   1.0000   1.0000   1.0000
     1.0000   1.0000   0.9947   0.0000   0.0000   0.0000   0.0000

          k =-0.1768-0.5303 0.5303 (  2218 PWs)   bands (ev):

   -12.3339  -1.3396   1.5053   3.5775   7.0249  10.5366  12.9099  15.0127
    16.8887  19.7364  21.3110  23.5913  23.5928  23.8054  24.3784

     occupation numbers 
     1.0000   1.0000   1.0000   1.0000   1.0000   1.0000   1.0000   1.0000
     1.0000   1.0000   1.0000   0.0000   0.0000   0.0000   0.0000

          k =-0.1179-0.4714 0.4714 (  2234 PWs)   bands (ev):

   -12.2634  -1.4157   0.9351   3.8058   7.2750  11.0822  13.3672  14.4584
    16.6441  19.3110  20.3623  23.5694  23.7865  23.8847  24.2921

     occupation numbers 
     1.0000   1.0000   1.0000   1.0000   1.0000   1.0000   1.0000   1.0000
     1.0000   1.0000   1.0000   0.0000   0.0000   0.0000   0.0000

          k =-0.0589-0.4125 0.4125 (  2228 PWs)   bands (ev):

   -12.3545  -1.2620   0.8444   4.1477   7.8324  11.2243  12.8236  13.9592
    17.2928  19.0049  19.1722  23.2666  23.8624  23.8960  24.2363

     occupation numbers 
     1.0000   1.0000   1.0000   1.0000   1.0000   1.0000   1.0000   1.0000
     1.0000   1.0000   1.0000   0.0000   0.0000   0.0000   0.0000

          k = 0.0000-0.3536 0.3536 (  2217 PWs)   bands (ev):

   -12.5709  -1.0521   1.3921   4.5335   8.6719  11.1876  11.4697  13.5465
    18.1699  18.2870  18.6425  23.0220  23.6407  23.9423  24.2265

     occupation numbers 
     1.0000   1.0000   1.0000   1.0000   1.0000   1.0000   1.0000   1.0000
     1.0000   1.0000   1.0000   0.0000   0.0000   0.0000   0.0000

          k = 0.4714 0.0000 0.0000 (  2233 PWs)   bands (ev):

   -12.6118  -0.6881   3.2810   3.2810   6.3440   7.9036  13.7584  16.6016
    16.6016  22.0446  22.0446  22.6232  22.8761  23.2485  24.8814

     occupation numbers 
     1.0000   1.0000   1.0000   1.0000   1.0000   1.0000   1.0000   1.0000
     1.0000   0.6104   0.6104   0.0032   0.0000   0.0000   0.0000

          k = 0.5303 0.0589-0.0589 (  2224 PWs)   bands (ev):

   -12.3997  -1.0071   2.5810   3.1387   6.0042   8.0872  14.2036  16.6979
    17.0660  22.0225  22.3346  23.1386  23.2914  23.5848  24.7706

     occupation numbers 
     1.0000   1.0000   1.0000   1.0000   1.0000   1.0000   1.0000   1.0000
     1.0000   0.6538   0.1100   0.0000   0.0000   0.0000   0.0000

          k =-0.1179-0.5893 0.5893 (  2222 PWs)   bands (ev):

   -12.2291  -1.1137   1.3826   3.1699   6.1080   9.1857  14.1379  16.3072
    17.1205  21.6023  21.9162  23.5217  23.6093  23.7305  24.5641

     occupation numbers 
     1.0000   1.0000   1.0000   1.0000   1.0000   1.0000   1.0000   1.0000
     1.0000   0.9951   0.8284   0.0000   0.0000   0.0000   0.0000

          k =-0.0589-0.5303 0.5303 (  2234 PWs)   bands (ev):

   -12.1554  -0.8889   0.2691   3.3712   6.4222  10.6605  13.8696  15.6414
    16.4823  20.9995  21.1153  23.5207  23.7256  23.8226  24.4028

     occupation numbers 
     1.0000   1.0000   1.0000   1.0000   1.0000   1.0000   1.0000   1.0000
     1.0000   1.0000   1.0000   0.0000   0.0000   0.0000   0.0000

          k =-0.0000-0.4714 0.4714 (  2231 PWs)   bands (ev):

   -12.2035  -0.7399  -0.1198   3.7166   6.9949  11.7864  13.1679  14.8259
    16.2953  19.9612  20.3236  23.3007  23.8267  23.8830  24.2914

     occupation numbers 
     1.0000   1.0000   1.0000   1.0000   1.0000   1.0000   1.0000   1.0000
     1.0000   1.0000   1.0000   0.0000   0.0000   0.0000   0.0000

          k = 0.5893 0.0000 0.0000 (  2229 PWs)   bands (ev):

   -12.2546  -1.2262   2.9318   2.9318   5.1038   7.4163  15.1867  17.3451
    17.3451  22.9184  23.1081  23.1081  23.4810  23.5570  25.0487

     occupation numbers 
     1.0000   1.0000   1.0000   1.0000   1.0000   1.0000   1.0000   1.0000
     1.0000   0.0000   0.0000   0.0000   0.0000   0.0000   0.0000

          k =-0.0589-0.6482 0.6482 (  2227 PWs)   bands (ev):

   -12.1468  -1.2925   2.1452   2.9028   5.2596   7.7869  15.3422  17.3015
    17.4255  22.5926  23.0712  23.5463  23.6451  23.6809  24.9037

     occupation numbers 
     1.0000   1.0000   1.0000   1.0000   1.0000   1.0000   1.0000   1.0000
     1.0000   0.0051   0.0000   0.0000   0.0000   0.0000   0.0000

          k = 0.0000-0.5893 0.5893 (  2225 PWs)   bands (ev):

   -12.1106  -1.0816   0.9430   3.0551   5.7806   9.0723  14.9171  16.6664
    16.8902  21.8454  22.4670  23.5464  23.6871  23.7588  24.6246

     occupation numbers 
     1.0000   1.0000   1.0000   1.0000   1.0000   1.0000   1.0000   1.0000
     1.0000   0.9059   0.0278   0.0000   0.0000   0.0000   0.0000

          k =-0.7071 0.0000 0.0000 (  2232 PWs)   bands (ev):

   -12.1154  -1.4091   2.8104   2.8104   4.6619   7.2525  15.7392  17.6771
    17.6771  22.9330  23.6362  23.6363  23.6615  23.6857  25.4288

     occupation numbers 
     1.0000   1.0000   1.0000   1.0000   1.0000   1.0000   1.0000   1.0000
     1.0000   0.0000   0.0000   0.0000   0.0000   0.0000   0.0000

          k = 0.2357 0.1179-0.0000 (  2208 PWs)   bands (ev):

   -13.3741   0.8757   4.0283   4.7951   8.5366  10.0425  11.8596  14.6856
    15.6773  17.3364  18.2959  20.1442  22.4968  23.3332  24.2757

     occupation numbers 
     1.0000   1.0000   1.0000   1.0000   1.0000   1.0000   1.0000   1.0000
     1.0000   1.0000   1.0000   1.0000   0.0192   0.0000   0.0000

          k = 0.2946 0.1768-0.0589 (  2212 PWs)   bands (ev):

   -13.0884  -0.1460   3.4067   4.6670   8.9009  10.4819  10.9290  14.1673
    16.0047  17.6951  19.3289  21.7976  23.0318  23.7206  24.3326

     occupation numbers 
     1.0000   1.0000   1.0000   1.0000   1.0000   1.0000   1.0000   1.0000
     1.0000   1.0000   1.0000   0.9411   0.0000   0.0000   0.0000

          k = 0.3536 0.2357-0.1179 (  2217 PWs)   bands (ev):

   -12.7732  -1.1132   2.9793   4.4395   8.7165  10.0073  12.0144  13.7433
    15.9299  18.3631  20.0764  22.9418  23.4303  23.8699  24.3024

     occupation numbers 
     1.0000   1.0000   1.0000   1.0000   1.0000   1.0000   1.0000   1.0000
     1.0000   1.0000   1.0000   0.0000   0.0000   0.0000   0.0000

          k =-0.2946-0.4125 0.5303 (  2230 PWs)   bands (ev):

   -12.5187  -1.8079   2.7429   4.2406   8.5775   9.5143  13.2131  13.6785
    15.7043  18.9101  20.3102  23.5197  23.7310  23.9040  24.2773

     occupation numbers 
     1.0000   1.0000   1.0000   1.0000   1.0000   1.0000   1.0000   1.0000
     1.0000   1.0000   1.0000   0.0000   0.0000   0.0000   0.0000

          k =-0.2357-0.3536 0.4714 (  2224 PWs)   bands (ev):

   -12.4196  -2.0617   2.6688   4.1630   8.5403   9.3339  13.2870  14.1938
    15.6122  18.8392  20.4943  23.6876  23.8641  23.9450  24.2680

     occupation numbers 
     1.0000   1.0000   1.0000   1.0000   1.0000   1.0000   1.0000   1.0000
     1.0000   1.0000   1.0000   0.0000   0.0000   0.0000   0.0000

          k = 0.3536 0.1179 0.0000 (  2218 PWs)   bands (ev):

   -12.9905  -0.1123   3.3197   4.0451   8.5287   9.2975  11.4853  15.2686
    16.0824  19.3584  19.9003  21.9643  22.8447  23.4203  24.4557

     occupation numbers 
     1.0000   1.0000   1.0000   1.0000   1.0000   1.0000   1.0000   1.0000
     1.0000   1.0000   1.0000   0.7573   0.0001   0.0000   0.0000

          k = 0.4125 0.1768-0.0589 (  2219 PWs)   bands (ev):

   -12.7065  -0.7853   2.5875   3.7643   8.2624   9.8314  11.5684  15.0505
    16.6099  19.4564  20.5597  22.9320  23.2044  23.7399  24.4005

     occupation numbers 
     1.0000   1.0000   1.0000   1.0000   1.0000   1.0000   1.0000   1.0000
     1.0000   1.0000   1.0000   0.0000   0.0000   0.0000   0.0000

          k =-0.2357-0.4714 0.5893 (  2222 PWs)   bands (ev):

   -12.4535  -1.3368   1.9758   3.5462   8.1231  10.2297  12.2042  14.7090
    16.9367  19.1039  20.8993  23.3303  23.6497  23.8443  24.3336

     occupation numbers 
     1.0000   1.0000   1.0000   1.0000   1.0000   1.0000   1.0000   1.0000
     1.0000   1.0000   1.0000   0.0000   0.0000   0.0000   0.0000

          k =-0.1768-0.4125 0.5303 (  2230 PWs)   bands (ev):

   -12.3165  -1.6136   1.5621   3.5381   8.2258  10.1502  13.2993  14.2397
    17.0431  18.4487  20.8286  23.5730  23.8112  23.8824  24.2823

     occupation numbers 
     1.0000   1.0000   1.0000   1.0000   1.0000   1.0000   1.0000   1.0000
     1.0000   1.0000   1.0000   0.0000   0.0000   0.0000   0.0000

          k =-0.1179-0.3536 0.4714 (  2230 PWs)   bands (ev):

   -12.3500  -1.5373   1.4257   3.7438   8.5680  10.0393  13.1606  14.0756
    17.3667  18.2027  20.2209  23.4582  23.8708  23.8772  24.2535

     occupation numbers 
     1.0000   1.0000   1.0000   1.0000   1.0000   1.0000   1.0000   1.0000
     1.0000   1.0000   1.0000   0.0000   0.0000   0.0000   0.0000

          k =-0.0589-0.2946 0.4125 (  2224 PWs)   bands (ev):

   -12.5396  -1.1688   1.6609   4.0962   9.1186  10.0596  11.7906  14.0981
    17.4288  18.6503  19.5600  23.1385  23.6489  23.9117  24.2582

     occupation numbers 
     1.0000   1.0000   1.0000   1.0000   1.0000   1.0000   1.0000   1.0000
     1.0000   1.0000   1.0000   0.0000   0.0000   0.0000   0.0000

          k = 0.0000-0.2357 0.3536 (  2227 PWs)   bands (ev):

   -12.8139  -0.6686   2.3444   4.4675   9.7466  10.1680  10.4860  14.0615
    16.8403  18.5139  19.4756  22.9452  23.0481  23.8672  24.2974

     occupation numbers 
     1.0000   1.0000   1.0000   1.0000   1.0000   1.0000   1.0000   1.0000
     1.0000   1.0000   1.0000   0.0000   0.0000   0.0000   0.0000

          k = 0.4714 0.1179 0.0000 (  2223 PWs)   bands (ev):

   -12.5715  -0.7887   2.7210   3.1826   7.0615   8.6665  13.0260  16.1329
    16.7968  21.1605  21.3847  22.9777  23.1647  23.5918  24.5964

     occupation numbers 
     1.0000   1.0000   1.0000   1.0000   1.0000   1.0000   1.0000   1.0000
     1.0000   1.0000   0.9999   0.0000   0.0000   0.0000   0.0000

          k =-0.1768-0.5303 0.6482 (  2225 PWs)   bands (ev):

   -12.3511  -1.0511   1.7915   2.8825   7.1538   9.4927  12.9688  15.8599
    17.3122  20.5920  21.7844  23.1900  23.6310  23.7651  24.4789

     occupation numbers 
     1.0000   1.0000   1.0000   1.0000   1.0000   1.0000   1.0000   1.0000
     1.0000   1.0000   0.9488   0.0000   0.0000   0.0000   0.0000

          k =-0.1179-0.4714 0.5893 (  2225 PWs)   bands (ev):

   -12.2120  -1.0871   0.8457   2.8993   7.3665  10.6837  12.9274  15.1244
    17.3177  19.9171  21.6027  23.4913  23.7434  23.8108  24.3687

     occupation numbers 
     1.0000   1.0000   1.0000   1.0000   1.0000   1.0000   1.0000   1.0000
     1.0000   1.0000   0.9950   0.0000   0.0000   0.0000   0.0000

          k =-0.0589-0.4125 0.5303 (  2235 PWs)   bands (ev):

   -12.2035  -0.9661   0.3160   3.1586   7.7601  11.3587  12.9862  14.3490
    17.1390  19.3089  20.9988  23.3875  23.8100  23.8700  24.2881

     occupation numbers 
     1.0000   1.0000   1.0000   1.0000   1.0000   1.0000   1.0000   1.0000
     1.0000   1.0000   1.0000   0.0000   0.0000   0.0000   0.0000

          k =-0.0000-0.3536 0.4714 (  2230 PWs)   bands (ev):

   -12.3277  -1.0432   0.6510   3.5963   8.3530  11.3427  11.9359  14.4100
    17.7267  18.4935  20.1742  23.1480  23.8444  23.8910  24.2471

     occupation numbers 
     1.0000   1.0000   1.0000   1.0000   1.0000   1.0000   1.0000   1.0000
     1.0000   1.0000   1.0000   0.0000   0.0000   0.0000   0.0000

          k =-0.1179-0.5893 0.7071 (  2224 PWs)   bands (ev):

   -12.2375  -1.1447   2.3321   2.4301   6.0884   8.2581  14.5050  16.6477
    17.5233  21.8984  22.8167  23.1598  23.6515  23.6949  24.7189

     occupation numbers 
     1.0000   1.0000   1.0000   1.0000   1.0000   1.0000   1.0000   1.0000
     1.0000   0.8509   0.0001   0.0000   0.0000   0.0000   0.0000

          k =-0.0589-0.5303 0.6482 (  2224 PWs)   bands (ev):

   -12.1341  -1.0228   1.1247   2.4160   6.6010   9.2879  14.3161  15.7664
    17.7180  21.2333  22.7093  23.4795  23.6773  23.7377  24.5522

     occupation numbers 
     1.0000   1.0000   1.0000   1.0000   1.0000   1.0000   1.0000   1.0000
     1.0000   1.0000   0.0008   0.0000   0.0000   0.0000   0.0000

          k =-0.0000-0.4714 0.5893 (  2235 PWs)   bands (ev):

   -12.1222  -0.5969   0.0163   2.6858   7.1167  10.7522  13.7986  14.6471
    17.4009  20.3924  22.0706  23.4300  23.7525  23.7853  24.3890

     occupation numbers 
     1.0000   1.0000   1.0000   1.0000   1.0000   1.0000   1.0000   1.0000
     1.0000   1.0000   0.5579   0.0000   0.0000   0.0000   0.0000

          k =-0.7071 0.1179 0.0000 (  2238 PWs)   bands (ev):

   -12.1085  -1.2450   2.1166   2.1982   5.7733   8.1178  15.2841  16.5836
    17.8502  22.1504  23.4219  23.5567  23.5943  23.6582  25.0956

     occupation numbers 
     1.0000   1.0000   1.0000   1.0000   1.0000   1.0000   1.0000   1.0000
     1.0000   0.3938   0.0000   0.0000   0.0000   0.0000   0.0000

          k =-0.2357-0.4714 0.7071 (  2231 PWs)   bands (ev):

   -12.4647  -0.9882   1.6568   3.2442   8.5556  10.2718  11.3633  15.1977
    17.4040  19.6062  20.6232  23.0365  23.6366  23.8424  24.3450

     occupation numbers 
     1.0000   1.0000   1.0000   1.0000   1.0000   1.0000   1.0000   1.0000
     1.0000   1.0000   1.0000   0.0000   0.0000   0.0000   0.0000

          k =-0.1768-0.4125 0.6482 (  2227 PWs)   bands (ev):

   -12.2755  -1.0797   0.9925   2.7745   8.6802  10.6535  11.8937  14.8253
    18.0159  18.7384  21.2603  23.2567  23.8230  23.8464  24.2988

     occupation numbers 
     1.0000   1.0000   1.0000   1.0000   1.0000   1.0000   1.0000   1.0000
     1.0000   1.0000   1.0000   0.0000   0.0000   0.0000   0.0000

          k =-0.1179-0.3536 0.5893 (  2236 PWs)   bands (ev):

   -12.2034  -1.0996   0.7477   2.5971   8.7094  10.5797  12.8621  14.1391
    18.0828  18.5292  21.5068  23.4633  23.7745  23.8667  24.2842

     occupation numbers 
     1.0000   1.0000   1.0000   1.0000   1.0000   1.0000   1.0000   1.0000
     1.0000   1.0000   0.9989   0.0000   0.0000   0.0000   0.0000

          k =-0.1179-0.4714 0.7071 (  2219 PWs)   bands (ev):

   -12.1959  -0.9232   1.2220   1.9782   7.8786  10.0505  12.7244  15.3020
    18.0667  20.0849  22.4119  23.1906  23.7669  23.7910  24.4111

     occupation numbers 
     1.0000   1.0000   1.0000   1.0000   1.0000   1.0000   1.0000   1.0000
     1.0000   1.0000   0.0517   0.0000   0.0000   0.0000   0.0000

          k =-0.0589-0.4125 0.6482 (  2222 PWs)   bands (ev):

   -12.1213  -0.5714   0.3760   1.7679   8.4011  11.0884  12.6055  13.9988
    18.4402  19.6441  22.5762  23.4068  23.6756  23.7864  24.3414

     occupation numbers 
     1.0000   1.0000   1.0000   1.0000   1.0000   1.0000   1.0000   1.0000
     1.0000   1.0000   0.0065   0.0000   0.0000   0.0000   0.0000

          k = 0.0000-0.3536 0.5893 (  2223 PWs)   bands (ev):

   -12.1515  -0.5697   0.1891   2.1018   8.7138  11.4981  12.0520  13.9395
    18.4816  19.0097  22.1244  23.2900  23.7883  23.8114  24.2987

     occupation numbers 
     1.0000   1.0000   1.0000   1.0000   1.0000   1.0000   1.0000   1.0000
     1.0000   1.0000   0.4465   0.0000   0.0000   0.0000   0.0000

          k =-0.7071 0.2357 0.0000 (  2224 PWs)   bands (ev):

   -12.0947  -0.7579   1.0739   1.3678   7.6634   9.9634  13.9736  14.3706
    18.3751  20.5850  23.3341  23.3767  23.4886  23.7136  24.4525

     occupation numbers 
     1.0000   1.0000   1.0000   1.0000   1.0000   1.0000   1.0000   1.0000
     1.0000   1.0000   0.0000   0.0000   0.0000   0.0000   0.0000

          k =-0.7071 0.3536 0.0000 (  2208 PWs)   bands (ev):

   -12.0878   0.0327   0.0327   1.0981   8.8973  12.0616  12.0616  12.9599
    19.2751  19.2751  23.3067  23.3765  23.3765  23.7506  24.3280

     occupation numbers 
     1.0000   1.0000   1.0000   1.0000   1.0000   1.0000   1.0000   1.0000
     1.0000   1.0000   0.0000   0.0000   0.0000   0.0000   0.0000

     the Fermi energy is    22.0986 ev

!    total energy              =    -492.54339442 Ry
     total all-electron energy =      -492.543351 Ry
     estimated scf accuracy    <          3.5E-10 Ry
     smearing contrib. (-TS)   =      -0.00203388 Ry
     internal energy E=F+TS    =    -492.54136054 Ry

     The total energy is F=E-TS. E is the sum of the following terms:
     one-electron contribution =      35.13039044 Ry
     hartree contribution      =       4.20945461 Ry
     xc contribution           =     -23.18669369 Ry
     ewald contribution        =    -103.74985020 Ry
     one-center paw contrib.   =    -404.94466170 Ry
      -> PAW hartree energy AE =      53.67550449 Ry
      -> PAW hartree energy PS =     -53.45556377 Ry
      -> PAW xc energy AE      =    -418.36000929 Ry
      -> PAW xc energy PS      =      13.19676149 Ry
      -> total E_H with PAW    =       4.42939534 Ry
      -> total E_XC with PAW   =    -428.34994149 Ry

     convergence has been achieved in  18 iterations

     Forces acting on atoms (cartesian axes, Ry/au):

     atom    1 type  1   force =    -0.00000000    0.00000000    0.00000000
     atom    2 type  2   force =     0.00000000   -0.00000000    0.00000000
     atom    3 type  2   force =     0.00000000   -0.00000000   -0.00000000
     atom    4 type  2   force =    -0.00014921   -0.00014921   -0.00014921
     atom    5 type  2   force =     0.00014921    0.00014921    0.00014921
     atom    6 type  2   force =     0.00014921    0.00014921   -0.00014921
     atom    7 type  2   force =    -0.00014921   -0.00014921    0.00014921
     atom    8 type  2   force =     0.00014921   -0.00014921    0.00014921
     atom    9 type  2   force =    -0.00014921    0.00014921   -0.00014921
     atom   10 type  2   force =    -0.00014921    0.00014921    0.00014921
     atom   11 type  2   force =     0.00014921   -0.00014921   -0.00014921
     The non-local contrib.  to forces
     atom    1 type  1   force =     0.00000000   -0.00000000   -0.00000000
     atom    2 type  2   force =     0.00000000    0.00000000    0.00000000
     atom    3 type  2   force =     0.00000000    0.00000000    0.00000000
     atom    4 type  2   force =    -0.00442970   -0.00442970   -0.00442970
     atom    5 type  2   force =     0.00442970    0.00442970    0.00442970
     atom    6 type  2   force =     0.00442970    0.00442970   -0.00442970
     atom    7 type  2   force =    -0.00442970   -0.00442970    0.00442970
     atom    8 type  2   force =     0.00442970   -0.00442970    0.00442970
     atom    9 type  2   force =    -0.00442970    0.00442970   -0.00442970
     atom   10 type  2   force =    -0.00442970    0.00442970    0.00442970
     atom   11 type  2   force =     0.00442970   -0.00442970   -0.00442970
     The ionic contribution  to forces
     atom    1 type  1   force =    -0.00000000    0.00000000    0.00000000
     atom    2 type  2   force =    -0.00000000   -0.00000000   -0.00000000
     atom    3 type  2   force =     0.00000000    0.00000000    0.00000000
     atom    4 type  2   force =     0.09762374    0.09762374    0.09762374
     atom    5 type  2   force =    -0.09762374   -0.09762374   -0.09762374
     atom    6 type  2   force =    -0.09762374   -0.09762374    0.09762374
     atom    7 type  2   force =     0.09762374    0.09762374   -0.09762374
     atom    8 type  2   force =    -0.09762374    0.09762374   -0.09762374
     atom    9 type  2   force =     0.09762374   -0.09762374    0.09762374
     atom   10 type  2   force =     0.09762374   -0.09762374   -0.09762374
     atom   11 type  2   force =    -0.09762374    0.09762374    0.09762374
     The local contribution  to forces
     atom    1 type  1   force =     0.00000000    0.00000000    0.00000000
     atom    2 type  2   force =     0.00000000   -0.00000000   -0.00000000
     atom    3 type  2   force =    -0.00000000    0.00000000    0.00000000
     atom    4 type  2   force =    -0.09334379   -0.09334379   -0.09334379
     atom    5 type  2   force =     0.09334379    0.09334379    0.09334379
     atom    6 type  2   force =     0.09334379    0.09334379   -0.09334379
     atom    7 type  2   force =    -0.09334379   -0.09334379    0.09334379
     atom    8 type  2   force =     0.09334379   -0.09334379    0.09334379
     atom    9 type  2   force =    -0.09334379    0.09334379   -0.09334379
     atom   10 type  2   force =    -0.09334379    0.09334379    0.09334379
     atom   11 type  2   force =     0.09334379   -0.09334379   -0.09334379
     The core correction contribution to forces
     atom    1 type  1   force =     0.00000000    0.00000000    0.00000000
     atom    2 type  2   force =     0.00000000    0.00000000    0.00000000
     atom    3 type  2   force =     0.00000000    0.00000000    0.00000000
     atom    4 type  2   force =     0.00000000    0.00000000    0.00000000
     atom    5 type  2   force =     0.00000000    0.00000000    0.00000000
     atom    6 type  2   force =     0.00000000    0.00000000    0.00000000
     atom    7 type  2   force =     0.00000000    0.00000000    0.00000000
     atom    8 type  2   force =     0.00000000    0.00000000    0.00000000
     atom    9 type  2   force =     0.00000000    0.00000000    0.00000000
     atom   10 type  2   force =     0.00000000    0.00000000    0.00000000
     atom   11 type  2   force =     0.00000000    0.00000000    0.00000000
     The Hubbard contrib.    to forces
     atom    1 type  1   force =     0.00000000    0.00000000    0.00000000
     atom    2 type  2   force =     0.00000000    0.00000000    0.00000000
     atom    3 type  2   force =     0.00000000    0.00000000    0.00000000
     atom    4 type  2   force =     0.00000000    0.00000000    0.00000000
     atom    5 type  2   force =     0.00000000    0.00000000    0.00000000
     atom    6 type  2   force =     0.00000000    0.00000000    0.00000000
     atom    7 type  2   force =     0.00000000    0.00000000    0.00000000
     atom    8 type  2   force =     0.00000000    0.00000000    0.00000000
     atom    9 type  2   force =     0.00000000    0.00000000    0.00000000
     atom   10 type  2   force =     0.00000000    0.00000000    0.00000000
     atom   11 type  2   force =     0.00000000    0.00000000    0.00000000
     The SCF correction term to forces
     atom    1 type  1   force =     0.00000000   -0.00000000   -0.00000000
     atom    2 type  2   force =    -0.00000000   -0.00000000    0.00000000
     atom    3 type  2   force =     0.00000000    0.00000000    0.00000000
     atom    4 type  2   force =     0.00000055    0.00000055    0.00000055
     atom    5 type  2   force =    -0.00000055   -0.00000055   -0.00000055
     atom    6 type  2   force =    -0.00000055   -0.00000055    0.00000055
     atom    7 type  2   force =     0.00000055    0.00000055   -0.00000055
     atom    8 type  2   force =    -0.00000055    0.00000055   -0.00000055
     atom    9 type  2   force =     0.00000055   -0.00000055    0.00000055
     atom   10 type  2   force =     0.00000055   -0.00000055   -0.00000055
     atom   11 type  2   force =    -0.00000055    0.00000055    0.00000055

     Total force =     0.000731     Total SCF correction =     0.000003


     Computing stress (Cartesian axis) and pressure

          total   stress  (Ry/bohr**3)                   (kbar)     P=     2500.10
   0.01699531  -0.00000000  -0.00000000         2500.10       -0.00       -0.00
  -0.00000000   0.01699531  -0.00000000           -0.00     2500.10       -0.00
  -0.00000000  -0.00000000   0.01699531           -0.00       -0.00     2500.10

     kinetic stress (kbar)  20502.19      0.00      0.00
                                0.00  20502.19      0.00
                                0.00      0.00  20502.19

     local   stress (kbar)   3218.77     -0.00     -0.00
                               -0.00   3218.77      0.00
                               -0.00      0.00   3218.77

     nonloc. stress (kbar)  10822.21      0.00      0.00
                                0.00  10822.21      0.00
                                0.00      0.00  10822.21

     hartree stress (kbar)   1122.31     -0.00      0.00
                               -0.00   1122.31     -0.00
                                0.00     -0.00   1122.31

     exc-cor stress (kbar)  -2660.85      0.00     -0.00
                                0.00  -2660.85     -0.00
                               -0.00     -0.00  -2660.85

     corecor stress (kbar)  -2843.20      0.00     -0.00
                                0.00  -2843.20     -0.00
                               -0.00     -0.00  -2843.20

     ewald   stress (kbar) -27661.34     -0.00     -0.00
                               -0.00 -27661.34      0.00
                               -0.00      0.00 -27661.34

     hubbard stress (kbar)      0.00      0.00      0.00
                                0.00      0.00      0.00
                                0.00      0.00      0.00

     DFT-D   stress (kbar)      0.00      0.00      0.00
                                0.00      0.00      0.00
                                0.00      0.00      0.00

     XDM     stress (kbar)      0.00      0.00      0.00
                                0.00      0.00      0.00
                                0.00      0.00      0.00

     dft-nl  stress (kbar)      0.00      0.00      0.00
                                0.00      0.00      0.00
                                0.00      0.00      0.00

     TS-vdW  stress (kbar)      0.00      0.00      0.00
                                0.00      0.00      0.00
                                0.00      0.00      0.00

     MDB     stress (kbar)      0.00      0.00      0.00
                                0.00      0.00      0.00
                                0.00      0.00      0.00

     3D-RISM stress (kbar)      0.00      0.00      0.00
                                0.00      0.00      0.00
                                0.00      0.00      0.00


     Writing all to output data dir ./tmp/Ce1H10.save/ :
     XML data file, charge density, pseudopotentials, collected wavefunctions
 
     init_run     :      0.55s CPU      1.58s WALL (       1 calls)
     electrons    :      7.73s CPU      8.48s WALL (       1 calls)
     forces       :      0.05s CPU      0.05s WALL (       1 calls)
     stress       :      0.17s CPU      0.18s WALL (       1 calls)

     Called by init_run:
     wfcinit      :      0.11s CPU      0.34s WALL (       1 calls)
     wfcinit:atom :      0.00s CPU      0.00s WALL (      18 calls)
     wfcinit:wfcr :      0.10s CPU      0.32s WALL (      18 calls)
     potinit      :      0.22s CPU      0.30s WALL (       1 calls)
     hinit0       :      0.12s CPU      0.47s WALL (       1 calls)

     Called by electrons:
     c_bands      :      2.43s CPU      2.87s WALL (      18 calls)
     sum_band     :      0.93s CPU      1.01s WALL (      18 calls)
     v_of_rho     :      0.19s CPU      0.21s WALL (      19 calls)
     v_h          :      0.01s CPU      0.01s WALL (      19 calls)
     v_xc         :      0.20s CPU      0.22s WALL (      21 calls)
     newd         :      0.41s CPU      0.67s WALL (      19 calls)
     PAW_pot      :      3.89s CPU      3.96s WALL (      19 calls)
     mix_rho      :      0.02s CPU      0.03s WALL (      18 calls)

     Called by c_bands:
     init_us_2    :      0.06s CPU      0.08s WALL (     702 calls)
     cegterg      :      2.07s CPU      2.30s WALL (     324 calls)

     Called by sum_band:
     sum_band:wei :      0.02s CPU      0.02s WALL (      18 calls)
     sum_band:loo :      0.32s CPU      0.37s WALL (      18 calls)
     sum_band:buf :      0.00s CPU      0.00s WALL (     324 calls)
     sum_band:ini :      0.03s CPU      0.04s WALL (     324 calls)
     sum_band:cal :      0.01s CPU      0.02s WALL (     324 calls)
     sum_band:bec :      0.00s CPU      0.00s WALL (     324 calls)
     addusdens    :      0.50s CPU      0.52s WALL (      18 calls)
                                        0.00s GPU  (      18 calls)
     addusd:skk   :      0.00s CPU      0.00s WALL (      36 calls)
                                        0.00s GPU  (      36 calls)

     Called by *egterg:
     cdiaghg      :      0.38s CPU      0.63s WALL (    1525 calls)
     cegterg:over :      0.05s CPU      0.06s WALL (    1201 calls)
     cegterg:upda :      0.02s CPU      0.02s WALL (    1201 calls)
     cegterg:last :      0.02s CPU      0.02s WALL (     727 calls)
     h_psi        :      1.60s CPU      1.75s WALL (    1543 calls)
     s_psi        :      0.04s CPU      0.04s WALL (    1543 calls)
     g_psi        :      0.01s CPU      0.01s WALL (    1201 calls)

     Called by h_psi:
     h_psi:calbec :      0.06s CPU      0.06s WALL (    1543 calls)
     vloc_psi     :      1.49s CPU      1.63s WALL (    1543 calls)
     add_vuspsi   :      0.04s CPU      0.04s WALL (    1543 calls)

     General routines
     calbec       :      0.08s CPU      0.09s WALL (    2173 calls)
     fft          :      0.09s CPU      0.25s WALL (     270 calls)
     ffts         :      0.00s CPU      0.04s WALL (      37 calls)
     fftw         :      1.42s CPU      1.56s WALL (   32782 calls)
     interpolate  :      0.01s CPU      0.05s WALL (      19 calls)
 
     Parallel routines

     PAW routines
     PAW_pot      :      3.89s CPU      3.96s WALL (      19 calls)
     PAW_symme    :      0.09s CPU      0.09s WALL (      37 calls)
 
     PWSCF        :      8.73s CPU     16.42s WALL

 
   This run was terminated on:  10:28: 4  22Oct2025            

=------------------------------------------------------------------------------=
   JOB DONE.
=------------------------------------------------------------------------------=
