
     Program PHONON v.7.4.1 starts on 22Oct2025 at 16:56:43 

     This program is part of the open-source Quantum ESPRESSO suite
     for quantum simulation of materials; please cite
         "P. Giannozzi et al., J. Phys.:Condens. Matter 21 395502 (2009);
         "P. Giannozzi et al., J. Phys.:Condens. Matter 29 465901 (2017);
         "P. Giannozzi et al., J. Chem. Phys. 152 154105 (2020);
          URL http://www.quantum-espresso.org", 
     in publications or presentations arising from this work. More details at
     http://www.quantum-espresso.org/quote

     Parallel version (MPI), running on    48 processors

     MPI processes distributed on     1 nodes
     180862 MiB available memory on the printing compute node when the environment starts
 
     Waiting for input...
     Reading input from standard input

     Reading xml data from directory:

     ./tmp/Ce1H10.save/
 
     K-points division:     npool     =       4
     R & G space division:  proc/nbgrp/npool/nimage =      12
     Subspace diagonalization in iterative solution of the eigenvalue problem:
     a serial algorithm will be used

     file Ce.paw.z_12.atompaw.wentzcovitch.v1.2.upf: wavefunction(s)  6S 0P 5D 0D 4F 0F renormalized
     file H.pbe-kjpaw_psl.1.0.0.UPF: wavefunction(s)  1S renormalized

     IMPORTANT: XC functional enforced from input :
     Exchange-correlation= PBE
                           (   1   4   3   4   0   0   0)
     Any further DFT definition will be discarded
     Please, verify this is what you really want

 
     Parallelization info
     --------------------
     sticks:   dense  smooth     PW     G-vecs:    dense   smooth      PW
     Min         226      76     22                 7730     1493     247
     Max         227      77     23                 7733     1495     249
     Sum        2713     913    271                92769    17933    2975
 
     Using Slab Decomposition
 
     Reading collected, re-writing distributed wavefunctions in ./tmp/


     Dynamical matrices for ( 6, 6, 6)  uniform grid of q-points
     (  16 q-points):
       N         xq(1)         xq(2)         xq(3) 
       1   0.000000000   0.000000000   0.000000000
       2   0.117851130   0.117851130  -0.117851130
       3   0.235702260   0.235702260  -0.235702260
       4  -0.353553391  -0.353553391   0.353553391
       5   0.235702260   0.000000000   0.000000000
       6   0.353553391   0.117851130  -0.117851130
       7  -0.235702260  -0.471404521   0.471404521
       8  -0.117851130  -0.353553391   0.353553391
       9   0.000000000  -0.235702260   0.235702260
      10   0.471404521   0.000000000   0.000000000
      11  -0.117851130  -0.589255651   0.589255651
      12  -0.000000000  -0.471404521   0.471404521
      13  -0.707106781   0.000000000   0.000000000
      14  -0.235702260  -0.471404521   0.707106781
      15  -0.117851130  -0.353553391   0.589255651
      16  -0.707106781   0.235702260   0.000000000

     Number and degeneracy of irreps per q-point
       N         xq(1)         xq(2)         xq(3)   N irreps
       1   0.000000000   0.000000000   0.000000000      13
        1   2   3   3   3   3   1   2   3   3   3   3   3
       2   0.117851130   0.117851130  -0.117851130      22
        1   1   1   1   1   1   1   1   1   1   1   2   2   2   2   2   2   2
   2   2   2   2
       3   0.235702260   0.235702260  -0.235702260      22
        1   1   1   1   1   1   1   1   1   1   1   2   2   2   2   2   2   2
   2   2   2   2
       4  -0.353553391  -0.353553391   0.353553391      22
        1   1   1   1   1   1   2   2   2   2   2   2   1   1   1   1   1   2
   2   2   2   2
       5   0.235702260   0.000000000   0.000000000      24
        1   1   1   1   1   1   1   1   1   1   1   1   1   1   1   2   2   2
   2   2   2   2   2   2
       6   0.353553391   0.117851130  -0.117851130      33
     No degeneracy
       7  -0.235702260  -0.471404521   0.471404521      33
     No degeneracy
       8  -0.117851130  -0.353553391   0.353553391      33
     No degeneracy
       9   0.000000000  -0.235702260   0.235702260      33
     No degeneracy
      10   0.471404521   0.000000000   0.000000000      24
        1   1   1   1   1   1   1   1   1   1   1   1   1   1   1   2   2   2
   2   2   2   2   2   2
      11  -0.117851130  -0.589255651   0.589255651      33
     No degeneracy
      12  -0.000000000  -0.471404521   0.471404521      33
     No degeneracy
      13  -0.707106781   0.000000000   0.000000000      24
        1   1   1   1   1   1   1   2   2   2   2   1   1   1   1   1   1   1
   1   2   2   2   2   2
      14  -0.235702260  -0.471404521   0.707106781      33
     No degeneracy
      15  -0.117851130  -0.353553391   0.589255651      33
     No degeneracy
      16  -0.707106781   0.235702260   0.000000000      33
     No degeneracy

     Saving dvscf to file. Distribute only q points, not irreducible representations.

     Calculation of q =   -0.2357023  -0.4714045   0.4714045
 
     Parallelization info
     --------------------
     sticks:   dense  smooth     PW     G-vecs:    dense   smooth      PW
     Min         226      76     26                 7730     1493     307
     Max         227      77     27                 7733     1495     310
     Sum        2713     913    313                92769    17933    3695
 
     Using Slab Decomposition
 

     Title: 
     Electron-phonon coefficients for Ce1H10                                    


     bravais-lattice index     =            0
     lattice parameter (alat)  =       6.3833  a.u.
     unit-cell volume          =     183.9165 (a.u.)^3
     number of atoms/cell      =           11
     number of atomic types    =            2
     number of electrons       =        22.00
     number of Kohn-Sham states=           15
     kinetic-energy cutoff     =      80.0000  Ry
     charge density cutoff     =     960.0000  Ry
     Exchange-correlation= PBE
                           (   1   4   3   4   0   0   0)

     celldm(1)=   6.383300  celldm(2)=   0.000000  celldm(3)=   0.000000
     celldm(4)=   0.000000  celldm(5)=   0.000000  celldm(6)=   0.000000

     crystal axes: (cart. coord. in units of alat)
               a(1) = (   0.000000   0.707107   0.707107 )  
               a(2) = (   0.707107   0.000000   0.707107 )  
               a(3) = (   0.707107   0.707107   0.000000 )  

     reciprocal axes: (cart. coord. in units 2 pi/alat)
               b(1) = ( -0.707107  0.707107  0.707107 )  
               b(2) = (  0.707107 -0.707107  0.707107 )  
               b(3) = (  0.707107  0.707107 -0.707107 )  


     PseudoPot. # 1 for Ce read from file:
     /work/home/mayuan/workplace/1.typical_hydride/003.MH10/2.CeH10/250/Tc-666-paw/pp/Ce.paw.z_12.atompaw.wentzcovitch.v1.2.upf
     MD5 check sum: 2241420ff980c77e0c917a2dc8a7e08e
     Pseudo is Projector augmented-wave + core cor, Zval = 12.0
     Generated using ATOMPAW code
     Shape of augmentation charge: BESSEL
     Using radial grid of 1102 points,  8 beta functions with: 
                l(1) =   0
                l(2) =   0
                l(3) =   1
                l(4) =   1
                l(5) =   2
                l(6) =   2
                l(7) =   3
                l(8) =   3
     Q(r) pseudized with 0 coefficients 


     PseudoPot. # 2 for H  read from file:
     /work/home/mayuan/workplace/1.typical_hydride/003.MH10/2.CeH10/250/Tc-666-paw/pp/H.pbe-kjpaw_psl.1.0.0.UPF
     MD5 check sum: 3bb27c602ede137025941d095c9090b7
     Pseudo is Projector augmented-wave, Zval =  1.0
     Generated using 'atomic' code by A. Dal Corso  v.7.1
     Shape of augmentation charge: PSQ
     Using radial grid of  929 points,  2 beta functions with: 
                l(1) =   0
                l(2) =   0
     Q(r) pseudized with 0 coefficients 


     atomic species   valence    mass     pseudopotential
     Ce               12.00   140.11600     Ce( 1.00)
     H                 1.00     1.00794     H ( 1.00)

     48 Sym. Ops., with inversion, found



   Cartesian axes

     site n.     atom                  positions (alat units)
         1        Ce     tau(   1) = (   0.7071068   0.7071068   0.7071068  )
         2        H      tau(   2) = (   0.3535534   0.3535534   0.3535534  )
         3        H      tau(   3) = (   1.0606602   1.0606602   1.0606602  )
         4        H      tau(   4) = (   1.2411448   1.2411448   1.2411448  )
         5        H      tau(   5) = (   0.1730688   0.1730688   0.1730688  )
         6        H      tau(   6) = (   0.8801756   0.8801756   1.2411448  )
         7        H      tau(   7) = (   0.5340380   0.5340380   0.1730688  )
         8        H      tau(   8) = (   0.8801756   1.2411448   0.8801756  )
         9        H      tau(   9) = (   0.5340380   0.1730688   0.5340380  )
        10        H      tau(  10) = (   1.2411448   0.8801756   0.8801756  )
        11        H      tau(  11) = (   0.1730688   0.5340380   0.5340380  )

     number of k points=  1872  Gaussian smearing, width (Ry)=  0.0200

     Number of k-points >= 100: set verbosity='high' to print them.

     Dense  grid:    92769 G-vectors     FFT dimensions: (  64,  64,  64)

     Smooth grid:    17933 G-vectors     FFT dimensions: (  40,  40,  40)

     Estimated max dynamical RAM per process >      32.03 MB

     Estimated total dynamical RAM >       1.50 GB

     The potential is recalculated from file :
     ./tmp/_ph0/Ce1H10.q_7/Ce1H10.save/charge-density

     Starting wfcs are   42 atomic wfcs
     Checking if some PAW data can be deallocated... 

     Band Structure Calculation
     Davidson diagonalization with overlap

     ethr =  4.55E-11,  avg # of iterations = 19.1

     total cpu time spent up to now is       44.0 secs

     End of band structure calculation

     Number of k-points >= 100: set verbosity='high' to print the bands.

     the Fermi energy is    22.0987 ev

     Writing config to output data dir ./tmp/_ph0/Ce1H10.q_7/Ce1H10.save/ :
     XML data file

Possibly too few bands at point    1   0.00000   0.00000   0.00000

     Electron-phonon coefficients for Ce1H10                                    

     bravais-lattice index     =            0
     lattice parameter (alat)  =       6.3833  a.u.
     unit-cell volume          =     183.9165 (a.u.)^3
     number of atoms/cell      =           11
     number of atomic types    =            2
     kinetic-energy cut-off    =      80.0000  Ry
     charge density cut-off    =     960.0000  Ry
     convergence threshold     =      1.0E-14
     beta                      =       0.3000
     number of iterations used =            4
     Exchange-correlation= PBE
                           (   1   4   3   4   0   0   0)


     celldm(1)=    6.38330  celldm(2)=    0.00000  celldm(3)=    0.00000
     celldm(4)=    0.00000  celldm(5)=    0.00000  celldm(6)=    0.00000

     crystal axes: (cart. coord. in units of alat)
               a(1) = (  0.0000  0.7071  0.7071 )  
               a(2) = (  0.7071  0.0000  0.7071 )  
               a(3) = (  0.7071  0.7071  0.0000 )  

     reciprocal axes: (cart. coord. in units 2 pi/alat)
               b(1) = ( -0.7071  0.7071  0.7071 )  
               b(2) = (  0.7071 -0.7071  0.7071 )  
               b(3) = (  0.7071  0.7071 -0.7071 )  


     Atoms inside the unit cell: 

     Cartesian axes

     site n.  atom      mass           positions (alat units)
        1  Ce    140.1160   tau(    1) = (    0.70711    0.70711    0.70711  )
        2  H       1.0079   tau(    2) = (    0.35355    0.35355    0.35355  )
        3  H       1.0079   tau(    3) = (    1.06066    1.06066    1.06066  )
        4  H       1.0079   tau(    4) = (    1.24114    1.24114    1.24114  )
        5  H       1.0079   tau(    5) = (    0.17307    0.17307    0.17307  )
        6  H       1.0079   tau(    6) = (    0.88018    0.88018    1.24114  )
        7  H       1.0079   tau(    7) = (    0.53404    0.53404    0.17307  )
        8  H       1.0079   tau(    8) = (    0.88018    1.24114    0.88018  )
        9  H       1.0079   tau(    9) = (    0.53404    0.17307    0.53404  )
       10  H       1.0079   tau(   10) = (    1.24114    0.88018    0.88018  )
       11  H       1.0079   tau(   11) = (    0.17307    0.53404    0.53404  )

     Computing dynamical matrix for 
                    q = (  -0.2357023  -0.4714045   0.4714045 )
 
      2 Sym.Ops. (no q -> -q+G )


     G cutoff =  990.8365  (   7731 G-vectors)     FFT grid: ( 64, 64, 64)
     G cutoff =  330.2788  (   1495 G-vectors)  smooth grid: ( 40, 40, 40)

     number of k points=  1872  Gaussian smearing, width (Ry)=  0.0200

     PseudoPot. # 1 for Ce read from file:
     /work/home/mayuan/workplace/1.typical_hydride/003.MH10/2.CeH10/250/Tc-666-paw/pp/Ce.paw.z_12.atompaw.wentzcovitch.v1.2.upf
     MD5 check sum: 2241420ff980c77e0c917a2dc8a7e08e
     Pseudo is Projector augmented-wave + core cor, Zval = 12.0
     Generated using ATOMPAW code
     Shape of augmentation charge: BESSEL
     Using radial grid of 1102 points,  8 beta functions with: 
                l(1) =   0
                l(2) =   0
                l(3) =   1
                l(4) =   1
                l(5) =   2
                l(6) =   2
                l(7) =   3
                l(8) =   3
     Q(r) pseudized with 0 coefficients 


     PseudoPot. # 2 for H  read from file:
     /work/home/mayuan/workplace/1.typical_hydride/003.MH10/2.CeH10/250/Tc-666-paw/pp/H.pbe-kjpaw_psl.1.0.0.UPF
     MD5 check sum: 3bb27c602ede137025941d095c9090b7
     Pseudo is Projector augmented-wave, Zval =  1.0
     Generated using 'atomic' code by A. Dal Corso  v.7.1
     Shape of augmentation charge: PSQ
     Using radial grid of  929 points,  2 beta functions with: 
                l(1) =   0
                l(2) =   0
     Q(r) pseudized with 0 coefficients 


     Mode symmetry, C_s (m)     point group:


     Atomic displacements:
     There are   33 irreducible representations

     Representation     1      1 modes -  To be done

     Representation     2      1 modes -  To be done

     Representation     3      1 modes -  To be done

     Representation     4      1 modes -  To be done

     Representation     5      1 modes -  To be done

     Representation     6      1 modes -  To be done

     Representation     7      1 modes -  To be done

     Representation     8      1 modes -  To be done

     Representation     9      1 modes -  To be done

     Representation    10      1 modes -  To be done

     Representation    11      1 modes -  To be done

     Representation    12      1 modes -  To be done

     Representation    13      1 modes -  To be done

     Representation    14      1 modes -  To be done

     Representation    15      1 modes -  To be done

     Representation    16      1 modes -  To be done

     Representation    17      1 modes -  To be done

     Representation    18      1 modes -  To be done

     Representation    19      1 modes -  To be done

     Representation    20      1 modes -  To be done

     Representation    21      1 modes -  To be done

     Representation    22      1 modes -  To be done

     Representation    23      1 modes -  To be done

     Representation    24      1 modes -  To be done

     Representation    25      1 modes -  To be done

     Representation    26      1 modes -  To be done

     Representation    27      1 modes -  To be done

     Representation    28      1 modes -  To be done

     Representation    29      1 modes -  To be done

     Representation    30      1 modes -  To be done

     Representation    31      1 modes -  To be done

     Representation    32      1 modes -  To be done

     Representation    33      1 modes -  To be done


     Message from routine init_vloc:
     Interpolation table for Vloc re-allocated

     Alpha used in Ewald sum =   2.8000
     PHONON       :   1m13.40s CPU   1m33.63s WALL



     Representation #   1 mode #   1

     Self-consistent Calculation

      iter #   1 total cpu time :   123.5 secs   av.it.:   7.8
      thresh= 1.000E-02 alpha_mix =  0.300 |ddv_scf|^2 =  2.310E-06

      iter #   2 total cpu time :   162.1 secs   av.it.:  16.0
      thresh= 1.520E-04 alpha_mix =  0.300 |ddv_scf|^2 =  1.158E-05

      iter #   3 total cpu time :   197.5 secs   av.it.:  14.4
      thresh= 3.403E-04 alpha_mix =  0.300 |ddv_scf|^2 =  1.177E-07

      iter #   4 total cpu time :   234.5 secs   av.it.:  14.7
      thresh= 3.430E-05 alpha_mix =  0.300 |ddv_scf|^2 =  2.293E-09

      iter #   5 total cpu time :   271.5 secs   av.it.:  16.0
      thresh= 4.788E-06 alpha_mix =  0.300 |ddv_scf|^2 =  2.505E-10

      iter #   6 total cpu time :   307.8 secs   av.it.:  17.1
      thresh= 1.583E-06 alpha_mix =  0.300 |ddv_scf|^2 =  1.623E-11

      iter #   7 total cpu time :   342.6 secs   av.it.:  16.8
      thresh= 4.029E-07 alpha_mix =  0.300 |ddv_scf|^2 =  3.573E-12

      iter #   8 total cpu time :   378.9 secs   av.it.:  16.7
      thresh= 1.890E-07 alpha_mix =  0.300 |ddv_scf|^2 =  3.851E-13

      iter #   9 total cpu time :   417.5 secs   av.it.:  16.4
      thresh= 6.205E-08 alpha_mix =  0.300 |ddv_scf|^2 =  2.650E-13

      iter #  10 total cpu time :   460.0 secs   av.it.:  16.2
      thresh= 5.148E-08 alpha_mix =  0.300 |ddv_scf|^2 =  4.538E-13

      iter #  11 total cpu time :   497.5 secs   av.it.:  15.4
      thresh= 6.736E-08 alpha_mix =  0.300 |ddv_scf|^2 =  1.095E-14

      iter #  12 total cpu time :   534.2 secs   av.it.:  16.5
      thresh= 1.047E-08 alpha_mix =  0.300 |ddv_scf|^2 =  4.459E-15

     End of self-consistent calculation

     Convergence has been achieved 


     Representation #   2 mode #   2

     Self-consistent Calculation

      iter #   1 total cpu time :   589.4 secs   av.it.:   7.5
      thresh= 1.000E-02 alpha_mix =  0.300 |ddv_scf|^2 =  4.113E-07

      iter #   2 total cpu time :   621.8 secs   av.it.:  16.2
      thresh= 6.414E-05 alpha_mix =  0.300 |ddv_scf|^2 =  1.308E-06

      iter #   3 total cpu time :   657.6 secs   av.it.:  14.7
      thresh= 1.144E-04 alpha_mix =  0.300 |ddv_scf|^2 =  7.635E-08

      iter #   4 total cpu time :   691.5 secs   av.it.:  15.2
      thresh= 2.763E-05 alpha_mix =  0.300 |ddv_scf|^2 =  1.480E-09

      iter #   5 total cpu time :   725.0 secs   av.it.:  16.8
      thresh= 3.847E-06 alpha_mix =  0.300 |ddv_scf|^2 =  1.912E-10

      iter #   6 total cpu time :   758.6 secs   av.it.:  16.9
      thresh= 1.383E-06 alpha_mix =  0.300 |ddv_scf|^2 =  2.390E-11

      iter #   7 total cpu time :   796.7 secs   av.it.:  16.6
      thresh= 4.889E-07 alpha_mix =  0.300 |ddv_scf|^2 =  3.307E-12

      iter #   8 total cpu time :   832.4 secs   av.it.:  16.7
      thresh= 1.819E-07 alpha_mix =  0.300 |ddv_scf|^2 =  5.482E-13

      iter #   9 total cpu time :   869.0 secs   av.it.:  16.5
      thresh= 7.404E-08 alpha_mix =  0.300 |ddv_scf|^2 =  3.854E-13

      iter #  10 total cpu time :   909.1 secs   av.it.:  15.4
      thresh= 6.208E-08 alpha_mix =  0.300 |ddv_scf|^2 =  8.700E-14

      iter #  11 total cpu time :   945.4 secs   av.it.:  15.9
      thresh= 2.950E-08 alpha_mix =  0.300 |ddv_scf|^2 =  1.686E-14

      iter #  12 total cpu time :   979.5 secs   av.it.:  16.8
      thresh= 1.299E-08 alpha_mix =  0.300 |ddv_scf|^2 =  4.727E-15

     End of self-consistent calculation

     Convergence has been achieved 


     Representation #   3 mode #   3

     Self-consistent Calculation

      iter #   1 total cpu time :  1028.3 secs   av.it.:  11.9
      thresh= 1.000E-02 alpha_mix =  0.300 |ddv_scf|^2 =  1.426E-04

      iter #   2 total cpu time :  1059.8 secs   av.it.:  15.7
      thresh= 1.194E-03 alpha_mix =  0.300 |ddv_scf|^2 =  1.955E-04

      iter #   3 total cpu time :  1090.9 secs   av.it.:  14.9
      thresh= 1.398E-03 alpha_mix =  0.300 |ddv_scf|^2 =  5.329E-05

      iter #   4 total cpu time :  1120.9 secs   av.it.:  14.5
      thresh= 7.300E-04 alpha_mix =  0.300 |ddv_scf|^2 =  1.136E-07

      iter #   5 total cpu time :  1150.7 secs   av.it.:  15.5
      thresh= 3.370E-05 alpha_mix =  0.300 |ddv_scf|^2 =  2.754E-09

      iter #   6 total cpu time :  1185.3 secs   av.it.:  16.4
      thresh= 5.248E-06 alpha_mix =  0.300 |ddv_scf|^2 =  2.701E-10

      iter #   7 total cpu time :  1219.7 secs   av.it.:  16.6
      thresh= 1.643E-06 alpha_mix =  0.300 |ddv_scf|^2 =  2.717E-11

      iter #   8 total cpu time :  1257.0 secs   av.it.:  16.7
      thresh= 5.213E-07 alpha_mix =  0.300 |ddv_scf|^2 =  4.186E-12

      iter #   9 total cpu time :  1292.6 secs   av.it.:  17.0
      thresh= 2.046E-07 alpha_mix =  0.300 |ddv_scf|^2 =  9.599E-13

      iter #  10 total cpu time :  1331.2 secs   av.it.:  16.0
      thresh= 9.797E-08 alpha_mix =  0.300 |ddv_scf|^2 =  1.050E-13

      iter #  11 total cpu time :  1368.1 secs   av.it.:  16.5
      thresh= 3.240E-08 alpha_mix =  0.300 |ddv_scf|^2 =  1.996E-13

      iter #  12 total cpu time :  1408.9 secs   av.it.:  15.6
      thresh= 4.468E-08 alpha_mix =  0.300 |ddv_scf|^2 =  1.285E-14

      iter #  13 total cpu time :  1445.7 secs   av.it.:  16.1
      thresh= 1.133E-08 alpha_mix =  0.300 |ddv_scf|^2 =  4.570E-15

     End of self-consistent calculation

     Convergence has been achieved 


     Representation #   4 mode #   4

     Self-consistent Calculation

      iter #   1 total cpu time :  1496.2 secs   av.it.:   8.1
      thresh= 1.000E-02 alpha_mix =  0.300 |ddv_scf|^2 =  3.806E-06

      iter #   2 total cpu time :  1528.3 secs   av.it.:  16.0
      thresh= 1.951E-04 alpha_mix =  0.300 |ddv_scf|^2 =  1.790E-05

      iter #   3 total cpu time :  1561.5 secs   av.it.:  14.4
      thresh= 4.230E-04 alpha_mix =  0.300 |ddv_scf|^2 =  2.674E-07

      iter #   4 total cpu time :  1597.7 secs   av.it.:  14.7
      thresh= 5.171E-05 alpha_mix =  0.300 |ddv_scf|^2 =  7.277E-09

      iter #   5 total cpu time :  1631.5 secs   av.it.:  15.6
      thresh= 8.530E-06 alpha_mix =  0.300 |ddv_scf|^2 =  3.345E-10

      iter #   6 total cpu time :  1665.9 secs   av.it.:  17.0
      thresh= 1.829E-06 alpha_mix =  0.300 |ddv_scf|^2 =  2.164E-11

      iter #   7 total cpu time :  1703.0 secs   av.it.:  17.0
      thresh= 4.651E-07 alpha_mix =  0.300 |ddv_scf|^2 =  7.892E-12

      iter #   8 total cpu time :  1742.7 secs   av.it.:  16.4
      thresh= 2.809E-07 alpha_mix =  0.300 |ddv_scf|^2 =  2.173E-12

      iter #   9 total cpu time :  1780.7 secs   av.it.:  15.4
      thresh= 1.474E-07 alpha_mix =  0.300 |ddv_scf|^2 =  1.288E-12

      iter #  10 total cpu time :  1821.9 secs   av.it.:  15.5
      thresh= 1.135E-07 alpha_mix =  0.300 |ddv_scf|^2 =  2.004E-13

      iter #  11 total cpu time :  1855.8 secs   av.it.:  16.6
      thresh= 4.476E-08 alpha_mix =  0.300 |ddv_scf|^2 =  2.747E-14

      iter #  12 total cpu time :  1892.8 secs   av.it.:  16.3
      thresh= 1.657E-08 alpha_mix =  0.300 |ddv_scf|^2 =  4.692E-15

     End of self-consistent calculation

     Convergence has been achieved 


     Representation #   5 mode #   5

     Self-consistent Calculation

      iter #   1 total cpu time :  1946.3 secs   av.it.:   7.5
      thresh= 1.000E-02 alpha_mix =  0.300 |ddv_scf|^2 =  7.655E-07

      iter #   2 total cpu time :  1980.3 secs   av.it.:  16.1
      thresh= 8.749E-05 alpha_mix =  0.300 |ddv_scf|^2 =  2.578E-06

      iter #   3 total cpu time :  2014.8 secs   av.it.:  14.6
      thresh= 1.606E-04 alpha_mix =  0.300 |ddv_scf|^2 =  1.238E-07

      iter #   4 total cpu time :  2048.9 secs   av.it.:  14.9
      thresh= 3.518E-05 alpha_mix =  0.300 |ddv_scf|^2 =  1.265E-09

      iter #   5 total cpu time :  2086.8 secs   av.it.:  16.8
      thresh= 3.557E-06 alpha_mix =  0.300 |ddv_scf|^2 =  2.013E-10

      iter #   6 total cpu time :  2122.2 secs   av.it.:  16.7
      thresh= 1.419E-06 alpha_mix =  0.300 |ddv_scf|^2 =  2.473E-11

      iter #   7 total cpu time :  2159.6 secs   av.it.:  16.8
      thresh= 4.973E-07 alpha_mix =  0.300 |ddv_scf|^2 =  2.245E-12

      iter #   8 total cpu time :  2196.6 secs   av.it.:  16.7
      thresh= 1.498E-07 alpha_mix =  0.300 |ddv_scf|^2 =  2.489E-13

      iter #   9 total cpu time :  2235.4 secs   av.it.:  16.8
      thresh= 4.989E-08 alpha_mix =  0.300 |ddv_scf|^2 =  3.304E-14

      iter #  10 total cpu time :  2270.3 secs   av.it.:  16.4
      thresh= 1.818E-08 alpha_mix =  0.300 |ddv_scf|^2 =  1.330E-14

      iter #  11 total cpu time :  2306.5 secs   av.it.:  17.0
      thresh= 1.153E-08 alpha_mix =  0.300 |ddv_scf|^2 =  2.122E-14

      iter #  12 total cpu time :  2344.2 secs   av.it.:  15.2
      thresh= 1.457E-08 alpha_mix =  0.300 |ddv_scf|^2 =  1.222E-15

     End of self-consistent calculation

     Convergence has been achieved 


     Representation #   6 mode #   6

     Self-consistent Calculation

      iter #   1 total cpu time :  2396.5 secs   av.it.:   7.7
      thresh= 1.000E-02 alpha_mix =  0.300 |ddv_scf|^2 =  1.273E-06

      iter #   2 total cpu time :  2424.1 secs   av.it.:  15.9
      thresh= 1.128E-04 alpha_mix =  0.300 |ddv_scf|^2 =  2.601E-06

      iter #   3 total cpu time :  2457.5 secs   av.it.:  14.8
      thresh= 1.613E-04 alpha_mix =  0.300 |ddv_scf|^2 =  3.974E-07

      iter #   4 total cpu time :  2493.1 secs   av.it.:  14.7
      thresh= 6.304E-05 alpha_mix =  0.300 |ddv_scf|^2 =  1.292E-09

      iter #   5 total cpu time :  2530.2 secs   av.it.:  16.5
      thresh= 3.595E-06 alpha_mix =  0.300 |ddv_scf|^2 =  2.091E-10

      iter #   6 total cpu time :  2567.8 secs   av.it.:  17.0
      thresh= 1.446E-06 alpha_mix =  0.300 |ddv_scf|^2 =  1.647E-11

      iter #   7 total cpu time :  2605.4 secs   av.it.:  16.8
      thresh= 4.059E-07 alpha_mix =  0.300 |ddv_scf|^2 =  2.036E-12

      iter #   8 total cpu time :  2640.1 secs   av.it.:  16.7
      thresh= 1.427E-07 alpha_mix =  0.300 |ddv_scf|^2 =  3.834E-13

      iter #   9 total cpu time :  2680.0 secs   av.it.:  16.8
      thresh= 6.192E-08 alpha_mix =  0.300 |ddv_scf|^2 =  9.689E-13

      iter #  10 total cpu time :  2719.5 secs   av.it.:  14.9
      thresh= 9.843E-08 alpha_mix =  0.300 |ddv_scf|^2 =  8.836E-14

      iter #  11 total cpu time :  2759.5 secs   av.it.:  15.7
      thresh= 2.972E-08 alpha_mix =  0.300 |ddv_scf|^2 =  4.723E-14

      iter #  12 total cpu time :  2795.8 secs   av.it.:  15.9
      thresh= 2.173E-08 alpha_mix =  0.300 |ddv_scf|^2 =  4.166E-15

     End of self-consistent calculation

     Convergence has been achieved 


     Representation #   7 mode #   7

     Self-consistent Calculation

      iter #   1 total cpu time :  2846.9 secs   av.it.:   7.9
      thresh= 1.000E-02 alpha_mix =  0.300 |ddv_scf|^2 =  1.874E-06

      iter #   2 total cpu time :  2881.4 secs   av.it.:  16.1
      thresh= 1.369E-04 alpha_mix =  0.300 |ddv_scf|^2 =  7.846E-06

      iter #   3 total cpu time :  2917.7 secs   av.it.:  14.5
      thresh= 2.801E-04 alpha_mix =  0.300 |ddv_scf|^2 =  1.873E-07

      iter #   4 total cpu time :  2953.6 secs   av.it.:  15.0
      thresh= 4.327E-05 alpha_mix =  0.300 |ddv_scf|^2 =  2.733E-09

      iter #   5 total cpu time :  2990.8 secs   av.it.:  16.5
      thresh= 5.227E-06 alpha_mix =  0.300 |ddv_scf|^2 =  3.281E-10

      iter #   6 total cpu time :  3028.4 secs   av.it.:  16.6
      thresh= 1.811E-06 alpha_mix =  0.300 |ddv_scf|^2 =  5.602E-11

      iter #   7 total cpu time :  3066.1 secs   av.it.:  16.6
      thresh= 7.485E-07 alpha_mix =  0.300 |ddv_scf|^2 =  3.571E-12

      iter #   8 total cpu time :  3108.2 secs   av.it.:  16.5
      thresh= 1.890E-07 alpha_mix =  0.300 |ddv_scf|^2 =  1.357E-12

      iter #   9 total cpu time :  3147.0 secs   av.it.:  16.1
      thresh= 1.165E-07 alpha_mix =  0.300 |ddv_scf|^2 =  2.984E-12

      iter #  10 total cpu time :  3187.2 secs   av.it.:  15.6
      thresh= 1.728E-07 alpha_mix =  0.300 |ddv_scf|^2 =  3.858E-14

      iter #  11 total cpu time :  3225.7 secs   av.it.:  16.2
      thresh= 1.964E-08 alpha_mix =  0.300 |ddv_scf|^2 =  2.594E-14

      iter #  12 total cpu time :  3266.2 secs   av.it.:  16.8
      thresh= 1.611E-08 alpha_mix =  0.300 |ddv_scf|^2 =  3.987E-15

     End of self-consistent calculation

     Convergence has been achieved 


     Representation #   8 mode #   8

     Self-consistent Calculation

      iter #   1 total cpu time :  3321.6 secs   av.it.:   7.7
      thresh= 1.000E-02 alpha_mix =  0.300 |ddv_scf|^2 =  1.412E-06

      iter #   2 total cpu time :  3352.7 secs   av.it.:  16.2
      thresh= 1.188E-04 alpha_mix =  0.300 |ddv_scf|^2 =  6.286E-06

      iter #   3 total cpu time :  3386.7 secs   av.it.:  14.5
      thresh= 2.507E-04 alpha_mix =  0.300 |ddv_scf|^2 =  1.261E-07

      iter #   4 total cpu time :  3422.2 secs   av.it.:  14.8
      thresh= 3.552E-05 alpha_mix =  0.300 |ddv_scf|^2 =  6.946E-09

      iter #   5 total cpu time :  3457.2 secs   av.it.:  15.8
      thresh= 8.334E-06 alpha_mix =  0.300 |ddv_scf|^2 =  2.969E-10

      iter #   6 total cpu time :  3494.1 secs   av.it.:  16.7
      thresh= 1.723E-06 alpha_mix =  0.300 |ddv_scf|^2 =  1.927E-11

      iter #   7 total cpu time :  3534.9 secs   av.it.:  17.0
      thresh= 4.389E-07 alpha_mix =  0.300 |ddv_scf|^2 =  3.311E-12

      iter #   8 total cpu time :  3577.5 secs   av.it.:  16.6
      thresh= 1.820E-07 alpha_mix =  0.300 |ddv_scf|^2 =  5.304E-12

      iter #   9 total cpu time :  3619.3 secs   av.it.:  14.3
      thresh= 2.303E-07 alpha_mix =  0.300 |ddv_scf|^2 =  2.659E-13

      iter #  10 total cpu time :  3658.6 secs   av.it.:  15.9
      thresh= 5.157E-08 alpha_mix =  0.300 |ddv_scf|^2 =  1.146E-13

      iter #  11 total cpu time :  3696.1 secs   av.it.:  16.8
      thresh= 3.385E-08 alpha_mix =  0.300 |ddv_scf|^2 =  5.725E-15

     End of self-consistent calculation

     Convergence has been achieved 


     Representation #   9 mode #   9

     Self-consistent Calculation

      iter #   1 total cpu time :  3746.8 secs   av.it.:   7.6
      thresh= 1.000E-02 alpha_mix =  0.300 |ddv_scf|^2 =  1.154E-06

      iter #   2 total cpu time :  3783.3 secs   av.it.:  16.1
      thresh= 1.074E-04 alpha_mix =  0.300 |ddv_scf|^2 =  5.226E-06

      iter #   3 total cpu time :  3821.4 secs   av.it.:  14.5
      thresh= 2.286E-04 alpha_mix =  0.300 |ddv_scf|^2 =  8.985E-08

      iter #   4 total cpu time :  3859.7 secs   av.it.:  15.0
      thresh= 2.997E-05 alpha_mix =  0.300 |ddv_scf|^2 =  3.299E-09

      iter #   5 total cpu time :  3897.2 secs   av.it.:  16.3
      thresh= 5.744E-06 alpha_mix =  0.300 |ddv_scf|^2 =  1.406E-10

      iter #   6 total cpu time :  3934.0 secs   av.it.:  16.9
      thresh= 1.186E-06 alpha_mix =  0.300 |ddv_scf|^2 =  1.673E-11

      iter #   7 total cpu time :  3976.1 secs   av.it.:  16.9
      thresh= 4.091E-07 alpha_mix =  0.300 |ddv_scf|^2 =  2.537E-12

      iter #   8 total cpu time :  4014.7 secs   av.it.:  16.8
      thresh= 1.593E-07 alpha_mix =  0.300 |ddv_scf|^2 =  1.125E-12

      iter #   9 total cpu time :  4054.0 secs   av.it.:  15.9
      thresh= 1.061E-07 alpha_mix =  0.300 |ddv_scf|^2 =  1.577E-12

      iter #  10 total cpu time :  4092.0 secs   av.it.:  15.3
      thresh= 1.256E-07 alpha_mix =  0.300 |ddv_scf|^2 =  1.640E-13

      iter #  11 total cpu time :  4132.2 secs   av.it.:  15.8
      thresh= 4.049E-08 alpha_mix =  0.300 |ddv_scf|^2 =  4.216E-14

      iter #  12 total cpu time :  4173.2 secs   av.it.:  16.4
      thresh= 2.053E-08 alpha_mix =  0.300 |ddv_scf|^2 =  4.887E-15

     End of self-consistent calculation

     Convergence has been achieved 


     Representation #  10 mode #  10

     Self-consistent Calculation

      iter #   1 total cpu time :  4227.4 secs   av.it.:   7.9
      thresh= 1.000E-02 alpha_mix =  0.300 |ddv_scf|^2 =  2.007E-06

      iter #   2 total cpu time :  4256.2 secs   av.it.:  16.0
      thresh= 1.417E-04 alpha_mix =  0.300 |ddv_scf|^2 =  9.495E-06

      iter #   3 total cpu time :  4291.5 secs   av.it.:  14.4
      thresh= 3.081E-04 alpha_mix =  0.300 |ddv_scf|^2 =  1.241E-07

      iter #   4 total cpu time :  4327.6 secs   av.it.:  15.0
      thresh= 3.522E-05 alpha_mix =  0.300 |ddv_scf|^2 =  2.071E-09

      iter #   5 total cpu time :  4365.2 secs   av.it.:  16.6
      thresh= 4.550E-06 alpha_mix =  0.300 |ddv_scf|^2 =  2.148E-10

      iter #   6 total cpu time :  4401.1 secs   av.it.:  16.7
      thresh= 1.466E-06 alpha_mix =  0.300 |ddv_scf|^2 =  2.788E-11

      iter #   7 total cpu time :  4439.2 secs   av.it.:  17.2
      thresh= 5.281E-07 alpha_mix =  0.300 |ddv_scf|^2 =  3.350E-12

      iter #   8 total cpu time :  4476.1 secs   av.it.:  16.6
      thresh= 1.830E-07 alpha_mix =  0.300 |ddv_scf|^2 =  6.923E-13

      iter #   9 total cpu time :  4516.7 secs   av.it.:  16.7
      thresh= 8.320E-08 alpha_mix =  0.300 |ddv_scf|^2 =  8.240E-13

      iter #  10 total cpu time :  4558.6 secs   av.it.:  15.1
      thresh= 9.078E-08 alpha_mix =  0.300 |ddv_scf|^2 =  9.784E-14

      iter #  11 total cpu time :  4597.3 secs   av.it.:  16.0
      thresh= 3.128E-08 alpha_mix =  0.300 |ddv_scf|^2 =  6.793E-14

      iter #  12 total cpu time :  4639.1 secs   av.it.:  15.9
      thresh= 2.606E-08 alpha_mix =  0.300 |ddv_scf|^2 =  1.739E-14

      iter #  13 total cpu time :  4675.5 secs   av.it.:  15.6
      thresh= 1.319E-08 alpha_mix =  0.300 |ddv_scf|^2 =  2.565E-15

     End of self-consistent calculation

     Convergence has been achieved 


     Representation #  11 mode #  11

     Self-consistent Calculation

      iter #   1 total cpu time :  4730.1 secs   av.it.:   7.5
      thresh= 1.000E-02 alpha_mix =  0.300 |ddv_scf|^2 =  1.050E-06

      iter #   2 total cpu time :  4763.5 secs   av.it.:  16.0
      thresh= 1.024E-04 alpha_mix =  0.300 |ddv_scf|^2 =  4.591E-06

      iter #   3 total cpu time :  4799.3 secs   av.it.:  14.5
      thresh= 2.143E-04 alpha_mix =  0.300 |ddv_scf|^2 =  8.815E-08

      iter #   4 total cpu time :  4836.8 secs   av.it.:  14.9
      thresh= 2.969E-05 alpha_mix =  0.300 |ddv_scf|^2 =  1.703E-09

      iter #   5 total cpu time :  4875.3 secs   av.it.:  16.6
      thresh= 4.127E-06 alpha_mix =  0.300 |ddv_scf|^2 =  1.713E-10

      iter #   6 total cpu time :  4914.6 secs   av.it.:  16.8
      thresh= 1.309E-06 alpha_mix =  0.300 |ddv_scf|^2 =  3.239E-11

      iter #   7 total cpu time :  4956.7 secs   av.it.:  16.5
      thresh= 5.692E-07 alpha_mix =  0.300 |ddv_scf|^2 =  2.657E-12

      iter #   8 total cpu time :  4997.6 secs   av.it.:  16.6
      thresh= 1.630E-07 alpha_mix =  0.300 |ddv_scf|^2 =  4.087E-13

      iter #   9 total cpu time :  5032.1 secs   av.it.:  16.6
      thresh= 6.393E-08 alpha_mix =  0.300 |ddv_scf|^2 =  6.113E-13

      iter #  10 total cpu time :  5069.4 secs   av.it.:  15.2
      thresh= 7.819E-08 alpha_mix =  0.300 |ddv_scf|^2 =  8.761E-14

      iter #  11 total cpu time :  5108.5 secs   av.it.:  15.7
      thresh= 2.960E-08 alpha_mix =  0.300 |ddv_scf|^2 =  1.739E-14

      iter #  12 total cpu time :  5146.9 secs   av.it.:  16.4
      thresh= 1.319E-08 alpha_mix =  0.300 |ddv_scf|^2 =  2.599E-14

      iter #  13 total cpu time :  5185.6 secs   av.it.:  15.7
      thresh= 1.612E-08 alpha_mix =  0.300 |ddv_scf|^2 =  1.629E-15

     End of self-consistent calculation

     Convergence has been achieved 


     Representation #  12 mode #  12

     Self-consistent Calculation

      iter #   1 total cpu time :  5240.7 secs   av.it.:   7.6
      thresh= 1.000E-02 alpha_mix =  0.300 |ddv_scf|^2 =  8.817E-07

      iter #   2 total cpu time :  5272.9 secs   av.it.:  16.2
      thresh= 9.390E-05 alpha_mix =  0.300 |ddv_scf|^2 =  3.820E-06

      iter #   3 total cpu time :  5310.8 secs   av.it.:  14.5
      thresh= 1.954E-04 alpha_mix =  0.300 |ddv_scf|^2 =  8.112E-08

      iter #   4 total cpu time :  5345.5 secs   av.it.:  15.0
      thresh= 2.848E-05 alpha_mix =  0.300 |ddv_scf|^2 =  3.051E-09

      iter #   5 total cpu time :  5387.0 secs   av.it.:  16.3
      thresh= 5.523E-06 alpha_mix =  0.300 |ddv_scf|^2 =  1.490E-10

      iter #   6 total cpu time :  5425.7 secs   av.it.:  16.9
      thresh= 1.221E-06 alpha_mix =  0.300 |ddv_scf|^2 =  1.911E-11

      iter #   7 total cpu time :  5464.8 secs   av.it.:  16.9
      thresh= 4.372E-07 alpha_mix =  0.300 |ddv_scf|^2 =  2.548E-12

      iter #   8 total cpu time :  5504.8 secs   av.it.:  16.8
      thresh= 1.596E-07 alpha_mix =  0.300 |ddv_scf|^2 =  1.234E-12

      iter #   9 total cpu time :  5540.0 secs   av.it.:  15.8
      thresh= 1.111E-07 alpha_mix =  0.300 |ddv_scf|^2 =  1.287E-12

      iter #  10 total cpu time :  5578.3 secs   av.it.:  15.6
      thresh= 1.134E-07 alpha_mix =  0.300 |ddv_scf|^2 =  4.305E-13

      iter #  11 total cpu time :  5614.6 secs   av.it.:  15.0
      thresh= 6.561E-08 alpha_mix =  0.300 |ddv_scf|^2 =  4.830E-14

      iter #  12 total cpu time :  5656.6 secs   av.it.:  16.3
      thresh= 2.198E-08 alpha_mix =  0.300 |ddv_scf|^2 =  7.097E-15

     End of self-consistent calculation

     Convergence has been achieved 


     Representation #  13 mode #  13

     Self-consistent Calculation

      iter #   1 total cpu time :  5710.1 secs   av.it.:   7.7
      thresh= 1.000E-02 alpha_mix =  0.300 |ddv_scf|^2 =  2.038E-06

      iter #   2 total cpu time :  5742.2 secs   av.it.:  16.0
      thresh= 1.428E-04 alpha_mix =  0.300 |ddv_scf|^2 =  1.018E-05

      iter #   3 total cpu time :  5774.6 secs   av.it.:  14.4
      thresh= 3.190E-04 alpha_mix =  0.300 |ddv_scf|^2 =  1.068E-07

      iter #   4 total cpu time :  5807.4 secs   av.it.:  14.8
      thresh= 3.268E-05 alpha_mix =  0.300 |ddv_scf|^2 =  1.732E-09

      iter #   5 total cpu time :  5843.4 secs   av.it.:  16.1
      thresh= 4.162E-06 alpha_mix =  0.300 |ddv_scf|^2 =  2.579E-10

      iter #   6 total cpu time :  5882.4 secs   av.it.:  17.0
      thresh= 1.606E-06 alpha_mix =  0.300 |ddv_scf|^2 =  1.696E-11

      iter #   7 total cpu time :  5918.3 secs   av.it.:  16.8
      thresh= 4.118E-07 alpha_mix =  0.300 |ddv_scf|^2 =  4.181E-12

      iter #   8 total cpu time :  5957.8 secs   av.it.:  16.7
      thresh= 2.045E-07 alpha_mix =  0.300 |ddv_scf|^2 =  3.762E-13

      iter #   9 total cpu time :  5997.2 secs   av.it.:  16.3
      thresh= 6.134E-08 alpha_mix =  0.300 |ddv_scf|^2 =  2.923E-13

      iter #  10 total cpu time :  6033.5 secs   av.it.:  15.9
      thresh= 5.407E-08 alpha_mix =  0.300 |ddv_scf|^2 =  4.465E-13

      iter #  11 total cpu time :  6071.8 secs   av.it.:  15.7
      thresh= 6.682E-08 alpha_mix =  0.300 |ddv_scf|^2 =  9.840E-15

     End of self-consistent calculation

     Convergence has been achieved 


     Representation #  14 mode #  14

     Self-consistent Calculation

      iter #   1 total cpu time :  6125.4 secs   av.it.:   7.8
      thresh= 1.000E-02 alpha_mix =  0.300 |ddv_scf|^2 =  1.462E-06

      iter #   2 total cpu time :  6159.6 secs   av.it.:  16.1
      thresh= 1.209E-04 alpha_mix =  0.300 |ddv_scf|^2 =  3.973E-06

      iter #   3 total cpu time :  6188.6 secs   av.it.:  14.7
      thresh= 1.993E-04 alpha_mix =  0.300 |ddv_scf|^2 =  3.724E-07

      iter #   4 total cpu time :  6221.6 secs   av.it.:  14.8
      thresh= 6.102E-05 alpha_mix =  0.300 |ddv_scf|^2 =  2.432E-09

      iter #   5 total cpu time :  6258.2 secs   av.it.:  16.2
      thresh= 4.931E-06 alpha_mix =  0.300 |ddv_scf|^2 =  2.551E-10

      iter #   6 total cpu time :  6293.1 secs   av.it.:  17.0
      thresh= 1.597E-06 alpha_mix =  0.300 |ddv_scf|^2 =  1.501E-11

      iter #   7 total cpu time :  6328.6 secs   av.it.:  16.8
      thresh= 3.875E-07 alpha_mix =  0.300 |ddv_scf|^2 =  3.505E-12

      iter #   8 total cpu time :  6367.1 secs   av.it.:  16.4
      thresh= 1.872E-07 alpha_mix =  0.300 |ddv_scf|^2 =  3.012E-13

      iter #   9 total cpu time :  6405.7 secs   av.it.:  16.7
      thresh= 5.488E-08 alpha_mix =  0.300 |ddv_scf|^2 =  8.142E-13

      iter #  10 total cpu time :  6439.3 secs   av.it.:  14.5
      thresh= 9.023E-08 alpha_mix =  0.300 |ddv_scf|^2 =  1.072E-13

      iter #  11 total cpu time :  6477.7 secs   av.it.:  16.6
      thresh= 3.273E-08 alpha_mix =  0.300 |ddv_scf|^2 =  1.576E-14

      iter #  12 total cpu time :  6515.6 secs   av.it.:  16.0
      thresh= 1.255E-08 alpha_mix =  0.300 |ddv_scf|^2 =  2.143E-15

     End of self-consistent calculation

     Convergence has been achieved 


     Representation #  15 mode #  15

     Self-consistent Calculation

      iter #   1 total cpu time :  6564.7 secs   av.it.:   7.7
      thresh= 1.000E-02 alpha_mix =  0.300 |ddv_scf|^2 =  1.697E-06

      iter #   2 total cpu time :  6594.7 secs   av.it.:  16.1
      thresh= 1.303E-04 alpha_mix =  0.300 |ddv_scf|^2 =  8.306E-06

      iter #   3 total cpu time :  6623.3 secs   av.it.:  14.4
      thresh= 2.882E-04 alpha_mix =  0.300 |ddv_scf|^2 =  1.023E-07

      iter #   4 total cpu time :  6655.4 secs   av.it.:  14.7
      thresh= 3.198E-05 alpha_mix =  0.300 |ddv_scf|^2 =  8.188E-09

      iter #   5 total cpu time :  6685.3 secs   av.it.:  15.7
      thresh= 9.049E-06 alpha_mix =  0.300 |ddv_scf|^2 =  2.924E-10

      iter #   6 total cpu time :  6719.2 secs   av.it.:  16.5
      thresh= 1.710E-06 alpha_mix =  0.300 |ddv_scf|^2 =  2.307E-11

      iter #   7 total cpu time :  6754.5 secs   av.it.:  16.9
      thresh= 4.803E-07 alpha_mix =  0.300 |ddv_scf|^2 =  3.112E-12

      iter #   8 total cpu time :  6787.9 secs   av.it.:  16.6
      thresh= 1.764E-07 alpha_mix =  0.300 |ddv_scf|^2 =  5.837E-12

      iter #   9 total cpu time :  6821.3 secs   av.it.:  14.5
      thresh= 2.416E-07 alpha_mix =  0.300 |ddv_scf|^2 =  2.261E-13

      iter #  10 total cpu time :  6859.6 secs   av.it.:  16.2
      thresh= 4.755E-08 alpha_mix =  0.300 |ddv_scf|^2 =  1.074E-13

      iter #  11 total cpu time :  6892.5 secs   av.it.:  16.6
      thresh= 3.278E-08 alpha_mix =  0.300 |ddv_scf|^2 =  8.822E-15

     End of self-consistent calculation

     Convergence has been achieved 


     Representation #  16 mode #  16

     Self-consistent Calculation

      iter #   1 total cpu time :  6940.9 secs   av.it.:   7.9
      thresh= 1.000E-02 alpha_mix =  0.300 |ddv_scf|^2 =  1.378E-06

      iter #   2 total cpu time :  6969.7 secs   av.it.:  16.1
      thresh= 1.174E-04 alpha_mix =  0.300 |ddv_scf|^2 =  5.956E-06

      iter #   3 total cpu time :  7000.9 secs   av.it.:  14.5
      thresh= 2.441E-04 alpha_mix =  0.300 |ddv_scf|^2 =  1.149E-07

      iter #   4 total cpu time :  7031.2 secs   av.it.:  15.2
      thresh= 3.390E-05 alpha_mix =  0.300 |ddv_scf|^2 =  2.289E-09

      iter #   5 total cpu time :  7066.0 secs   av.it.:  16.5
      thresh= 4.784E-06 alpha_mix =  0.300 |ddv_scf|^2 =  3.001E-10

      iter #   6 total cpu time :  7103.4 secs   av.it.:  16.9
      thresh= 1.732E-06 alpha_mix =  0.300 |ddv_scf|^2 =  2.854E-11

      iter #   7 total cpu time :  7140.8 secs   av.it.:  17.0
      thresh= 5.342E-07 alpha_mix =  0.300 |ddv_scf|^2 =  3.392E-12

      iter #   8 total cpu time :  7174.3 secs   av.it.:  17.0
      thresh= 1.842E-07 alpha_mix =  0.300 |ddv_scf|^2 =  7.165E-13

      iter #   9 total cpu time :  7213.5 secs   av.it.:  16.2
      thresh= 8.465E-08 alpha_mix =  0.300 |ddv_scf|^2 =  1.226E-12

      iter #  10 total cpu time :  7251.0 secs   av.it.:  15.0
      thresh= 1.107E-07 alpha_mix =  0.300 |ddv_scf|^2 =  3.833E-13

      iter #  11 total cpu time :  7293.7 secs   av.it.:  16.3
      thresh= 6.191E-08 alpha_mix =  0.300 |ddv_scf|^2 =  4.971E-14

      iter #  12 total cpu time :  7330.4 secs   av.it.:  15.7
      thresh= 2.230E-08 alpha_mix =  0.300 |ddv_scf|^2 =  7.199E-15

     End of self-consistent calculation

     Convergence has been achieved 


     Representation #  17 mode #  17

     Self-consistent Calculation

      iter #   1 total cpu time :  7380.9 secs   av.it.:   7.7
      thresh= 1.000E-02 alpha_mix =  0.300 |ddv_scf|^2 =  5.835E-07

      iter #   2 total cpu time :  7413.9 secs   av.it.:  16.3
      thresh= 7.639E-05 alpha_mix =  0.300 |ddv_scf|^2 =  3.036E-06

      iter #   3 total cpu time :  7445.8 secs   av.it.:  14.4
      thresh= 1.742E-04 alpha_mix =  0.300 |ddv_scf|^2 =  2.471E-08

      iter #   4 total cpu time :  7480.5 secs   av.it.:  15.6
      thresh= 1.572E-05 alpha_mix =  0.300 |ddv_scf|^2 =  7.805E-09

      iter #   5 total cpu time :  7514.9 secs   av.it.:  16.0
      thresh= 8.835E-06 alpha_mix =  0.300 |ddv_scf|^2 =  1.724E-10

      iter #   6 total cpu time :  7553.0 secs   av.it.:  16.7
      thresh= 1.313E-06 alpha_mix =  0.300 |ddv_scf|^2 =  2.230E-11

      iter #   7 total cpu time :  7591.1 secs   av.it.:  16.5
      thresh= 4.722E-07 alpha_mix =  0.300 |ddv_scf|^2 =  5.743E-12

      iter #   8 total cpu time :  7635.2 secs   av.it.:  16.5
      thresh= 2.396E-07 alpha_mix =  0.300 |ddv_scf|^2 =  2.218E-12

      iter #   9 total cpu time :  7669.7 secs   av.it.:  14.8
      thresh= 1.489E-07 alpha_mix =  0.300 |ddv_scf|^2 =  2.567E-13

      iter #  10 total cpu time :  7707.1 secs   av.it.:  16.3
      thresh= 5.067E-08 alpha_mix =  0.300 |ddv_scf|^2 =  3.776E-14

      iter #  11 total cpu time :  7746.1 secs   av.it.:  16.5
      thresh= 1.943E-08 alpha_mix =  0.300 |ddv_scf|^2 =  1.043E-14

      iter #  12 total cpu time :  7784.5 secs   av.it.:  16.7
      thresh= 1.021E-08 alpha_mix =  0.300 |ddv_scf|^2 =  3.081E-15

     End of self-consistent calculation

     Convergence has been achieved 


     Representation #  18 mode #  18

     Self-consistent Calculation

      iter #   1 total cpu time :  7833.9 secs   av.it.:   7.9
      thresh= 1.000E-02 alpha_mix =  0.300 |ddv_scf|^2 =  3.144E-06

      iter #   2 total cpu time :  7866.3 secs   av.it.:  16.1
      thresh= 1.773E-04 alpha_mix =  0.300 |ddv_scf|^2 =  1.662E-05

      iter #   3 total cpu time :  7899.0 secs   av.it.:  14.4
      thresh= 4.077E-04 alpha_mix =  0.300 |ddv_scf|^2 =  1.254E-07

      iter #   4 total cpu time :  7932.1 secs   av.it.:  14.5
      thresh= 3.542E-05 alpha_mix =  0.300 |ddv_scf|^2 =  1.424E-08

      iter #   5 total cpu time :  7967.0 secs   av.it.:  15.4
      thresh= 1.193E-05 alpha_mix =  0.300 |ddv_scf|^2 =  3.590E-10

      iter #   6 total cpu time :  8001.6 secs   av.it.:  16.7
      thresh= 1.895E-06 alpha_mix =  0.300 |ddv_scf|^2 =  2.473E-11

      iter #   7 total cpu time :  8038.1 secs   av.it.:  17.0
      thresh= 4.973E-07 alpha_mix =  0.300 |ddv_scf|^2 =  5.403E-12

      iter #   8 total cpu time :  8074.4 secs   av.it.:  16.6
      thresh= 2.325E-07 alpha_mix =  0.300 |ddv_scf|^2 =  5.579E-12

      iter #   9 total cpu time :  8113.6 secs   av.it.:  14.8
      thresh= 2.362E-07 alpha_mix =  0.300 |ddv_scf|^2 =  4.477E-13

      iter #  10 total cpu time :  8149.2 secs   av.it.:  16.3
      thresh= 6.691E-08 alpha_mix =  0.300 |ddv_scf|^2 =  1.252E-13

      iter #  11 total cpu time :  8190.1 secs   av.it.:  16.5
      thresh= 3.539E-08 alpha_mix =  0.300 |ddv_scf|^2 =  2.259E-14

      iter #  12 total cpu time :  8229.2 secs   av.it.:  16.6
      thresh= 1.503E-08 alpha_mix =  0.300 |ddv_scf|^2 =  1.185E-14

      iter #  13 total cpu time :  8266.0 secs   av.it.:  15.4
      thresh= 1.089E-08 alpha_mix =  0.300 |ddv_scf|^2 =  5.970E-15

     End of self-consistent calculation

     Convergence has been achieved 


     Representation #  19 mode #  19

     Self-consistent Calculation

      iter #   1 total cpu time :  8316.1 secs   av.it.:  11.2
      thresh= 1.000E-02 alpha_mix =  0.300 |ddv_scf|^2 =  1.803E-05

      iter #   2 total cpu time :  8347.4 secs   av.it.:  16.0
      thresh= 4.246E-04 alpha_mix =  0.300 |ddv_scf|^2 =  4.878E-05

      iter #   3 total cpu time :  8381.7 secs   av.it.:  14.7
      thresh= 6.984E-04 alpha_mix =  0.300 |ddv_scf|^2 =  4.473E-06

      iter #   4 total cpu time :  8416.6 secs   av.it.:  14.8
      thresh= 2.115E-04 alpha_mix =  0.300 |ddv_scf|^2 =  6.960E-08

      iter #   5 total cpu time :  8451.5 secs   av.it.:  15.5
      thresh= 2.638E-05 alpha_mix =  0.300 |ddv_scf|^2 =  2.044E-08

      iter #   6 total cpu time :  8488.9 secs   av.it.:  15.3
      thresh= 1.430E-05 alpha_mix =  0.300 |ddv_scf|^2 =  6.408E-10

      iter #   7 total cpu time :  8527.0 secs   av.it.:  15.7
      thresh= 2.531E-06 alpha_mix =  0.300 |ddv_scf|^2 =  1.789E-10

      iter #   8 total cpu time :  8566.1 secs   av.it.:  16.2
      thresh= 1.337E-06 alpha_mix =  0.300 |ddv_scf|^2 =  5.145E-12

      iter #   9 total cpu time :  8607.0 secs   av.it.:  17.0
      thresh= 2.268E-07 alpha_mix =  0.300 |ddv_scf|^2 =  1.916E-12

      iter #  10 total cpu time :  8644.2 secs   av.it.:  16.0
      thresh= 1.384E-07 alpha_mix =  0.300 |ddv_scf|^2 =  2.241E-12

      iter #  11 total cpu time :  8685.2 secs   av.it.:  15.5
      thresh= 1.497E-07 alpha_mix =  0.300 |ddv_scf|^2 =  8.053E-14

      iter #  12 total cpu time :  8726.5 secs   av.it.:  16.2
      thresh= 2.838E-08 alpha_mix =  0.300 |ddv_scf|^2 =  4.584E-14

      iter #  13 total cpu time :  8760.9 secs   av.it.:  15.7
      thresh= 2.141E-08 alpha_mix =  0.300 |ddv_scf|^2 =  7.836E-15

     End of self-consistent calculation

     Convergence has been achieved 


     Representation #  20 mode #  20

     Self-consistent Calculation

      iter #   1 total cpu time :  8809.4 secs   av.it.:   7.6
      thresh= 1.000E-02 alpha_mix =  0.300 |ddv_scf|^2 =  6.003E-07

      iter #   2 total cpu time :  8840.3 secs   av.it.:  16.3
      thresh= 7.748E-05 alpha_mix =  0.300 |ddv_scf|^2 =  2.682E-06

      iter #   3 total cpu time :  8872.0 secs   av.it.:  14.5
      thresh= 1.638E-04 alpha_mix =  0.300 |ddv_scf|^2 =  5.287E-08

      iter #   4 total cpu time :  8904.0 secs   av.it.:  15.1
      thresh= 2.299E-05 alpha_mix =  0.300 |ddv_scf|^2 =  4.669E-09

      iter #   5 total cpu time :  8938.1 secs   av.it.:  16.1
      thresh= 6.833E-06 alpha_mix =  0.300 |ddv_scf|^2 =  2.573E-10

      iter #   6 total cpu time :  8973.2 secs   av.it.:  16.7
      thresh= 1.604E-06 alpha_mix =  0.300 |ddv_scf|^2 =  2.456E-11

      iter #   7 total cpu time :  9008.9 secs   av.it.:  16.9
      thresh= 4.956E-07 alpha_mix =  0.300 |ddv_scf|^2 =  2.790E-12

      iter #   8 total cpu time :  9043.8 secs   av.it.:  16.7
      thresh= 1.670E-07 alpha_mix =  0.300 |ddv_scf|^2 =  1.888E-12

      iter #   9 total cpu time :  9084.6 secs   av.it.:  15.8
      thresh= 1.374E-07 alpha_mix =  0.300 |ddv_scf|^2 =  1.446E-12

      iter #  10 total cpu time :  9119.8 secs   av.it.:  15.8
      thresh= 1.203E-07 alpha_mix =  0.300 |ddv_scf|^2 =  4.096E-14

      iter #  11 total cpu time :  9157.5 secs   av.it.:  16.8
      thresh= 2.024E-08 alpha_mix =  0.300 |ddv_scf|^2 =  7.395E-14

      iter #  12 total cpu time :  9192.5 secs   av.it.:  15.1
      thresh= 2.719E-08 alpha_mix =  0.300 |ddv_scf|^2 =  8.433E-15

     End of self-consistent calculation

     Convergence has been achieved 


     Representation #  21 mode #  21

     Self-consistent Calculation

      iter #   1 total cpu time :  9242.7 secs   av.it.:   7.1
      thresh= 1.000E-02 alpha_mix =  0.300 |ddv_scf|^2 =  1.268E-08

      iter #   2 total cpu time :  9278.3 secs   av.it.:  16.1
      thresh= 1.126E-05 alpha_mix =  0.300 |ddv_scf|^2 =  3.027E-09

      iter #   3 total cpu time :  9313.1 secs   av.it.:  16.6
      thresh= 5.501E-06 alpha_mix =  0.300 |ddv_scf|^2 =  2.338E-10

      iter #   4 total cpu time :  9345.8 secs   av.it.:  17.0
      thresh= 1.529E-06 alpha_mix =  0.300 |ddv_scf|^2 =  9.872E-12

      iter #   5 total cpu time :  9377.7 secs   av.it.:  16.9
      thresh= 3.142E-07 alpha_mix =  0.300 |ddv_scf|^2 =  6.167E-13

      iter #   6 total cpu time :  9411.9 secs   av.it.:  16.5
      thresh= 7.853E-08 alpha_mix =  0.300 |ddv_scf|^2 =  1.188E-13

      iter #   7 total cpu time :  9447.0 secs   av.it.:  16.8
      thresh= 3.447E-08 alpha_mix =  0.300 |ddv_scf|^2 =  5.616E-15

     End of self-consistent calculation

     Convergence has been achieved 


     Representation #  22 mode #  22

     Self-consistent Calculation

      iter #   1 total cpu time :  9491.3 secs   av.it.:   7.0
      thresh= 1.000E-02 alpha_mix =  0.300 |ddv_scf|^2 =  9.270E-09

      iter #   2 total cpu time :  9520.8 secs   av.it.:  16.1
      thresh= 9.628E-06 alpha_mix =  0.300 |ddv_scf|^2 =  2.753E-09

      iter #   3 total cpu time :  9556.0 secs   av.it.:  16.8
      thresh= 5.246E-06 alpha_mix =  0.300 |ddv_scf|^2 =  1.428E-10

      iter #   4 total cpu time :  9589.3 secs   av.it.:  16.9
      thresh= 1.195E-06 alpha_mix =  0.300 |ddv_scf|^2 =  8.280E-12

      iter #   5 total cpu time :  9620.6 secs   av.it.:  16.9
      thresh= 2.878E-07 alpha_mix =  0.300 |ddv_scf|^2 =  4.965E-13

      iter #   6 total cpu time :  9650.7 secs   av.it.:  16.6
      thresh= 7.047E-08 alpha_mix =  0.300 |ddv_scf|^2 =  8.786E-14

      iter #   7 total cpu time :  9683.3 secs   av.it.:  16.9
      thresh= 2.964E-08 alpha_mix =  0.300 |ddv_scf|^2 =  4.679E-15

     End of self-consistent calculation

     Convergence has been achieved 


     Representation #  23 mode #  23

     Self-consistent Calculation

      iter #   1 total cpu time :  9730.1 secs   av.it.:   7.0
      thresh= 1.000E-02 alpha_mix =  0.300 |ddv_scf|^2 =  1.308E-08

      iter #   2 total cpu time :  9759.2 secs   av.it.:  16.1
      thresh= 1.144E-05 alpha_mix =  0.300 |ddv_scf|^2 =  2.572E-09

      iter #   3 total cpu time :  9793.6 secs   av.it.:  16.5
      thresh= 5.071E-06 alpha_mix =  0.300 |ddv_scf|^2 =  2.043E-10

      iter #   4 total cpu time :  9823.9 secs   av.it.:  16.9
      thresh= 1.429E-06 alpha_mix =  0.300 |ddv_scf|^2 =  1.085E-11

      iter #   5 total cpu time :  9856.1 secs   av.it.:  16.9
      thresh= 3.294E-07 alpha_mix =  0.300 |ddv_scf|^2 =  6.137E-13

      iter #   6 total cpu time :  9888.4 secs   av.it.:  16.5
      thresh= 7.834E-08 alpha_mix =  0.300 |ddv_scf|^2 =  1.338E-13

      iter #   7 total cpu time :  9921.3 secs   av.it.:  16.9
      thresh= 3.658E-08 alpha_mix =  0.300 |ddv_scf|^2 =  3.838E-15

     End of self-consistent calculation

     Convergence has been achieved 


     Representation #  24 mode #  24

     Self-consistent Calculation

      iter #   1 total cpu time :  9969.4 secs   av.it.:   7.3
      thresh= 1.000E-02 alpha_mix =  0.300 |ddv_scf|^2 =  4.587E-08

      iter #   2 total cpu time :  9999.4 secs   av.it.:  15.9
      thresh= 2.142E-05 alpha_mix =  0.300 |ddv_scf|^2 =  6.474E-09

      iter #   3 total cpu time : 10029.7 secs   av.it.:  16.5
      thresh= 8.046E-06 alpha_mix =  0.300 |ddv_scf|^2 =  3.144E-10

      iter #   4 total cpu time : 10060.6 secs   av.it.:  17.0
      thresh= 1.773E-06 alpha_mix =  0.300 |ddv_scf|^2 =  1.475E-11

      iter #   5 total cpu time : 10091.8 secs   av.it.:  17.0
      thresh= 3.841E-07 alpha_mix =  0.300 |ddv_scf|^2 =  7.875E-13

      iter #   6 total cpu time : 10124.4 secs   av.it.:  16.4
      thresh= 8.874E-08 alpha_mix =  0.300 |ddv_scf|^2 =  1.763E-13

      iter #   7 total cpu time : 10158.6 secs   av.it.:  16.9
      thresh= 4.199E-08 alpha_mix =  0.300 |ddv_scf|^2 =  6.300E-15

     End of self-consistent calculation

     Convergence has been achieved 


     Representation #  25 mode #  25

     Self-consistent Calculation

      iter #   1 total cpu time : 10202.4 secs   av.it.:   7.2
      thresh= 1.000E-02 alpha_mix =  0.300 |ddv_scf|^2 =  4.005E-08

      iter #   2 total cpu time : 10235.0 secs   av.it.:  15.9
      thresh= 2.001E-05 alpha_mix =  0.300 |ddv_scf|^2 =  5.952E-09

      iter #   3 total cpu time : 10268.1 secs   av.it.:  16.5
      thresh= 7.715E-06 alpha_mix =  0.300 |ddv_scf|^2 =  2.925E-10

      iter #   4 total cpu time : 10302.0 secs   av.it.:  16.9
      thresh= 1.710E-06 alpha_mix =  0.300 |ddv_scf|^2 =  1.564E-11

      iter #   5 total cpu time : 10336.3 secs   av.it.:  16.9
      thresh= 3.955E-07 alpha_mix =  0.300 |ddv_scf|^2 =  7.821E-13

      iter #   6 total cpu time : 10368.6 secs   av.it.:  16.4
      thresh= 8.844E-08 alpha_mix =  0.300 |ddv_scf|^2 =  1.548E-13

      iter #   7 total cpu time : 10401.5 secs   av.it.:  16.8
      thresh= 3.934E-08 alpha_mix =  0.300 |ddv_scf|^2 =  6.833E-15

     End of self-consistent calculation

     Convergence has been achieved 


     Representation #  26 mode #  26

     Self-consistent Calculation

      iter #   1 total cpu time : 10448.2 secs   av.it.:   7.2
      thresh= 1.000E-02 alpha_mix =  0.300 |ddv_scf|^2 =  4.005E-08

      iter #   2 total cpu time : 10477.7 secs   av.it.:  15.9
      thresh= 2.001E-05 alpha_mix =  0.300 |ddv_scf|^2 =  5.952E-09

      iter #   3 total cpu time : 10513.2 secs   av.it.:  16.5
      thresh= 7.715E-06 alpha_mix =  0.300 |ddv_scf|^2 =  2.925E-10

      iter #   4 total cpu time : 10547.7 secs   av.it.:  16.9
      thresh= 1.710E-06 alpha_mix =  0.300 |ddv_scf|^2 =  1.564E-11

      iter #   5 total cpu time : 10580.0 secs   av.it.:  16.9
      thresh= 3.955E-07 alpha_mix =  0.300 |ddv_scf|^2 =  7.821E-13

      iter #   6 total cpu time : 10615.9 secs   av.it.:  16.4
      thresh= 8.844E-08 alpha_mix =  0.300 |ddv_scf|^2 =  1.548E-13

      iter #   7 total cpu time : 10654.1 secs   av.it.:  16.8
      thresh= 3.934E-08 alpha_mix =  0.300 |ddv_scf|^2 =  6.833E-15

     End of self-consistent calculation

     Convergence has been achieved 


     Representation #  27 mode #  27

     Self-consistent Calculation

      iter #   1 total cpu time : 10702.2 secs   av.it.:   7.3
      thresh= 1.000E-02 alpha_mix =  0.300 |ddv_scf|^2 =  4.423E-08

      iter #   2 total cpu time : 10732.3 secs   av.it.:  15.9
      thresh= 2.103E-05 alpha_mix =  0.300 |ddv_scf|^2 =  6.497E-09

      iter #   3 total cpu time : 10771.8 secs   av.it.:  16.5
      thresh= 8.061E-06 alpha_mix =  0.300 |ddv_scf|^2 =  3.074E-10

      iter #   4 total cpu time : 10807.9 secs   av.it.:  17.0
      thresh= 1.753E-06 alpha_mix =  0.300 |ddv_scf|^2 =  1.626E-11

      iter #   5 total cpu time : 10844.2 secs   av.it.:  17.0
      thresh= 4.032E-07 alpha_mix =  0.300 |ddv_scf|^2 =  7.884E-13

      iter #   6 total cpu time : 10881.7 secs   av.it.:  16.4
      thresh= 8.879E-08 alpha_mix =  0.300 |ddv_scf|^2 =  1.867E-13

      iter #   7 total cpu time : 10920.3 secs   av.it.:  16.9
      thresh= 4.320E-08 alpha_mix =  0.300 |ddv_scf|^2 =  6.681E-15

     End of self-consistent calculation

     Convergence has been achieved 


     Representation #  28 mode #  28

     Self-consistent Calculation

      iter #   1 total cpu time : 10976.4 secs   av.it.:   6.8
      thresh= 1.000E-02 alpha_mix =  0.300 |ddv_scf|^2 =  5.924E-09

      iter #   2 total cpu time : 11009.4 secs   av.it.:  16.2
      thresh= 7.697E-06 alpha_mix =  0.300 |ddv_scf|^2 =  1.576E-09

      iter #   3 total cpu time : 11043.0 secs   av.it.:  16.7
      thresh= 3.970E-06 alpha_mix =  0.300 |ddv_scf|^2 =  1.263E-10

      iter #   4 total cpu time : 11074.1 secs   av.it.:  16.8
      thresh= 1.124E-06 alpha_mix =  0.300 |ddv_scf|^2 =  7.349E-12

      iter #   5 total cpu time : 11104.9 secs   av.it.:  16.8
      thresh= 2.711E-07 alpha_mix =  0.300 |ddv_scf|^2 =  5.115E-13

      iter #   6 total cpu time : 11140.8 secs   av.it.:  16.8
      thresh= 7.152E-08 alpha_mix =  0.300 |ddv_scf|^2 =  8.922E-14

      iter #   7 total cpu time : 11177.6 secs   av.it.:  16.8
      thresh= 2.987E-08 alpha_mix =  0.300 |ddv_scf|^2 =  4.039E-15

     End of self-consistent calculation

     Convergence has been achieved 


     Representation #  29 mode #  29

     Self-consistent Calculation

      iter #   1 total cpu time : 11228.4 secs   av.it.:   7.3
      thresh= 1.000E-02 alpha_mix =  0.300 |ddv_scf|^2 =  4.587E-08

      iter #   2 total cpu time : 11257.3 secs   av.it.:  15.9
      thresh= 2.142E-05 alpha_mix =  0.300 |ddv_scf|^2 =  6.474E-09

      iter #   3 total cpu time : 11288.3 secs   av.it.:  16.5
      thresh= 8.046E-06 alpha_mix =  0.300 |ddv_scf|^2 =  3.144E-10

      iter #   4 total cpu time : 11321.8 secs   av.it.:  17.0
      thresh= 1.773E-06 alpha_mix =  0.300 |ddv_scf|^2 =  1.475E-11

      iter #   5 total cpu time : 11356.8 secs   av.it.:  17.0
      thresh= 3.841E-07 alpha_mix =  0.300 |ddv_scf|^2 =  7.875E-13

      iter #   6 total cpu time : 11390.7 secs   av.it.:  16.4
      thresh= 8.874E-08 alpha_mix =  0.300 |ddv_scf|^2 =  1.763E-13

      iter #   7 total cpu time : 11427.2 secs   av.it.:  16.9
      thresh= 4.199E-08 alpha_mix =  0.300 |ddv_scf|^2 =  6.300E-15

     End of self-consistent calculation

     Convergence has been achieved 


     Representation #  30 mode #  30

     Self-consistent Calculation

      iter #   1 total cpu time : 11474.5 secs   av.it.:   7.3
      thresh= 1.000E-02 alpha_mix =  0.300 |ddv_scf|^2 =  4.423E-08

      iter #   2 total cpu time : 11503.8 secs   av.it.:  15.9
      thresh= 2.103E-05 alpha_mix =  0.300 |ddv_scf|^2 =  6.497E-09

      iter #   3 total cpu time : 11536.4 secs   av.it.:  16.5
      thresh= 8.061E-06 alpha_mix =  0.300 |ddv_scf|^2 =  3.074E-10

      iter #   4 total cpu time : 11567.5 secs   av.it.:  17.0
      thresh= 1.753E-06 alpha_mix =  0.300 |ddv_scf|^2 =  1.626E-11

      iter #   5 total cpu time : 11599.4 secs   av.it.:  17.0
      thresh= 4.032E-07 alpha_mix =  0.300 |ddv_scf|^2 =  7.883E-13

      iter #   6 total cpu time : 11637.6 secs   av.it.:  16.4
      thresh= 8.879E-08 alpha_mix =  0.300 |ddv_scf|^2 =  1.867E-13

      iter #   7 total cpu time : 11674.9 secs   av.it.:  16.9
      thresh= 4.320E-08 alpha_mix =  0.300 |ddv_scf|^2 =  6.681E-15

     End of self-consistent calculation

     Convergence has been achieved 


     Representation #  31 mode #  31

     Self-consistent Calculation

      iter #   1 total cpu time : 11731.1 secs   av.it.:   6.9
      thresh= 1.000E-02 alpha_mix =  0.300 |ddv_scf|^2 =  6.975E-09

      iter #   2 total cpu time : 11775.9 secs   av.it.:  16.1
      thresh= 8.352E-06 alpha_mix =  0.300 |ddv_scf|^2 =  1.986E-09

      iter #   3 total cpu time : 11810.8 secs   av.it.:  16.8
      thresh= 4.456E-06 alpha_mix =  0.300 |ddv_scf|^2 =  1.152E-10

      iter #   4 total cpu time : 11854.6 secs   av.it.:  16.9
      thresh= 1.073E-06 alpha_mix =  0.300 |ddv_scf|^2 =  7.559E-12

      iter #   5 total cpu time : 11890.3 secs   av.it.:  16.8
      thresh= 2.749E-07 alpha_mix =  0.300 |ddv_scf|^2 =  5.435E-13

      iter #   6 total cpu time : 11925.7 secs   av.it.:  16.8
      thresh= 7.372E-08 alpha_mix =  0.300 |ddv_scf|^2 =  9.686E-14

      iter #   7 total cpu time : 11964.7 secs   av.it.:  16.8
      thresh= 3.112E-08 alpha_mix =  0.300 |ddv_scf|^2 =  4.725E-15

     End of self-consistent calculation

     Convergence has been achieved 


     Representation #  32 mode #  32

     Self-consistent Calculation

      iter #   1 total cpu time : 12017.9 secs   av.it.:  10.8
      thresh= 1.000E-02 alpha_mix =  0.300 |ddv_scf|^2 =  2.907E-06

      iter #   2 total cpu time : 12056.1 secs   av.it.:  15.4
      thresh= 1.705E-04 alpha_mix =  0.300 |ddv_scf|^2 =  3.163E-07

      iter #   3 total cpu time : 12086.6 secs   av.it.:  16.1
      thresh= 5.624E-05 alpha_mix =  0.300 |ddv_scf|^2 =  2.969E-09

      iter #   4 total cpu time : 12124.7 secs   av.it.:  16.6
      thresh= 5.449E-06 alpha_mix =  0.300 |ddv_scf|^2 =  1.528E-10

      iter #   5 total cpu time : 12158.9 secs   av.it.:  16.6
      thresh= 1.236E-06 alpha_mix =  0.300 |ddv_scf|^2 =  1.850E-11

      iter #   6 total cpu time : 12195.5 secs   av.it.:  16.8
      thresh= 4.302E-07 alpha_mix =  0.300 |ddv_scf|^2 =  1.035E-12

      iter #   7 total cpu time : 12233.1 secs   av.it.:  16.8
      thresh= 1.017E-07 alpha_mix =  0.300 |ddv_scf|^2 =  2.959E-14

      iter #   8 total cpu time : 12272.0 secs   av.it.:  15.8
      thresh= 1.720E-08 alpha_mix =  0.300 |ddv_scf|^2 =  1.165E-14

      iter #   9 total cpu time : 12308.5 secs   av.it.:  16.9
      thresh= 1.079E-08 alpha_mix =  0.300 |ddv_scf|^2 =  1.133E-16

     End of self-consistent calculation

     Convergence has been achieved 


     Representation #  33 mode #  33

     Self-consistent Calculation

      iter #   1 total cpu time : 12363.4 secs   av.it.:   7.1
      thresh= 1.000E-02 alpha_mix =  0.300 |ddv_scf|^2 =  1.757E-08

      iter #   2 total cpu time : 12397.8 secs   av.it.:  16.1
      thresh= 1.326E-05 alpha_mix =  0.300 |ddv_scf|^2 =  3.248E-09

      iter #   3 total cpu time : 12435.6 secs   av.it.:  16.6
      thresh= 5.699E-06 alpha_mix =  0.300 |ddv_scf|^2 =  2.302E-10

      iter #   4 total cpu time : 12477.1 secs   av.it.:  16.9
      thresh= 1.517E-06 alpha_mix =  0.300 |ddv_scf|^2 =  1.298E-11

      iter #   5 total cpu time : 12513.1 secs   av.it.:  17.0
      thresh= 3.603E-07 alpha_mix =  0.300 |ddv_scf|^2 =  5.854E-13

      iter #   6 total cpu time : 12549.1 secs   av.it.:  16.4
      thresh= 7.651E-08 alpha_mix =  0.300 |ddv_scf|^2 =  1.469E-13

      iter #   7 total cpu time : 12597.3 secs   av.it.:  17.0
      thresh= 3.832E-08 alpha_mix =  0.300 |ddv_scf|^2 =  4.436E-15

     End of self-consistent calculation

     Convergence has been achieved 
 
     Number of q in the star =   24
     List of q in the star:
          1  -0.235702260  -0.471404521   0.471404521
          2   0.235702260  -0.471404521  -0.471404521
          3  -0.235702260  -0.471404521  -0.471404521
          4  -0.235702260   0.471404521  -0.471404521
          5  -0.235702260   0.471404521   0.471404521
          6   0.235702260   0.471404521  -0.471404521
          7   0.235702260  -0.471404521   0.471404521
          8   0.235702260   0.471404521   0.471404521
          9  -0.471404521   0.471404521  -0.235702260
         10   0.471404521   0.471404521   0.235702260
         11   0.471404521   0.471404521  -0.235702260
         12   0.471404521  -0.471404521  -0.235702260
         13   0.471404521  -0.235702260  -0.471404521
         14   0.471404521   0.235702260   0.471404521
         15  -0.471404521   0.235702260  -0.471404521
         16   0.471404521   0.235702260  -0.471404521
         17  -0.471404521   0.235702260   0.471404521
         18  -0.471404521  -0.471404521   0.235702260
         19   0.471404521  -0.235702260   0.471404521
         20  -0.471404521  -0.235702260  -0.471404521
         21  -0.471404521   0.471404521   0.235702260
         22  -0.471404521  -0.235702260   0.471404521
         23   0.471404521  -0.471404521   0.235702260
         24  -0.471404521  -0.471404521  -0.235702260

     Diagonalizing the dynamical matrix

     q = (   -0.235702260  -0.471404521   0.471404521 ) 

 **************************************************************************
     freq (    1) =       6.779615 [THz] =     226.143611 [cm-1]
     freq (    2) =       7.260215 [THz] =     242.174713 [cm-1]
     freq (    3) =       9.007827 [THz] =     300.468761 [cm-1]
     freq (    4) =      23.884664 [THz] =     796.706631 [cm-1]
     freq (    5) =      25.989937 [THz] =     866.930997 [cm-1]
     freq (    6) =      26.269915 [THz] =     876.270038 [cm-1]
     freq (    7) =      27.311131 [THz] =     911.001258 [cm-1]
     freq (    8) =      27.730889 [THz] =     925.002884 [cm-1]
     freq (    9) =      34.467291 [THz] =    1149.705088 [cm-1]
     freq (   10) =      34.630804 [THz] =    1155.159296 [cm-1]
     freq (   11) =      35.521344 [THz] =    1184.864482 [cm-1]
     freq (   12) =      38.039275 [THz] =    1268.853642 [cm-1]
     freq (   13) =      38.846882 [THz] =    1295.792518 [cm-1]
     freq (   14) =      39.734118 [THz] =    1325.387513 [cm-1]
     freq (   15) =      42.426020 [THz] =    1415.179707 [cm-1]
     freq (   16) =      42.819561 [THz] =    1428.306823 [cm-1]
     freq (   17) =      43.877303 [THz] =    1463.589283 [cm-1]
     freq (   18) =      44.296296 [THz] =    1477.565380 [cm-1]
     freq (   19) =      44.407385 [THz] =    1481.270922 [cm-1]
     freq (   20) =      45.538500 [THz] =    1519.000864 [cm-1]
     freq (   21) =      46.935232 [THz] =    1565.590819 [cm-1]
     freq (   22) =      47.666615 [THz] =    1589.987140 [cm-1]
     freq (   23) =      48.216409 [THz] =    1608.326280 [cm-1]
     freq (   24) =      48.852664 [THz] =    1629.549453 [cm-1]
     freq (   25) =      51.287079 [THz] =    1710.752815 [cm-1]
     freq (   26) =      51.752950 [THz] =    1726.292581 [cm-1]
     freq (   27) =      52.504993 [THz] =    1751.378049 [cm-1]
     freq (   28) =      53.425210 [THz] =    1782.073185 [cm-1]
     freq (   29) =      54.844077 [THz] =    1829.401507 [cm-1]
     freq (   30) =      55.018425 [THz] =    1835.217129 [cm-1]
     freq (   31) =      56.826546 [THz] =    1895.529544 [cm-1]
     freq (   32) =      61.243565 [THz] =    2042.865431 [cm-1]
     freq (   33) =      65.415479 [THz] =    2182.025521 [cm-1]
 **************************************************************************

     Mode symmetry, C_s (m)     point group:

     freq (   1-   1) =        226.1  [cm-1]   --> A''                
     freq (   2-   2) =        242.2  [cm-1]   --> A'                 
     freq (   3-   3) =        300.5  [cm-1]   --> A'                 
     freq (   4-   4) =        796.7  [cm-1]   --> A'                 
     freq (   5-   5) =        866.9  [cm-1]   --> A''                
     freq (   6-   6) =        876.3  [cm-1]   --> A'                 
     freq (   7-   7) =        911.0  [cm-1]   --> A''                
     freq (   8-   8) =        925.0  [cm-1]   --> A'                 
     freq (   9-   9) =       1149.7  [cm-1]   --> A'                 
     freq (  10-  10) =       1155.2  [cm-1]   --> A''                
     freq (  11-  11) =       1184.9  [cm-1]   --> A'                 
     freq (  12-  12) =       1268.9  [cm-1]   --> A''                
     freq (  13-  13) =       1295.8  [cm-1]   --> A'                 
     freq (  14-  14) =       1325.4  [cm-1]   --> A''                
     freq (  15-  15) =       1415.2  [cm-1]   --> A'                 
     freq (  16-  16) =       1428.3  [cm-1]   --> A''                
     freq (  17-  17) =       1463.6  [cm-1]   --> A''                
     freq (  18-  18) =       1477.6  [cm-1]   --> A''                
     freq (  19-  19) =       1481.3  [cm-1]   --> A'                 
     freq (  20-  20) =       1519.0  [cm-1]   --> A'                 
     freq (  21-  21) =       1565.6  [cm-1]   --> A'                 
     freq (  22-  22) =       1590.0  [cm-1]   --> A'                 
     freq (  23-  23) =       1608.3  [cm-1]   --> A''                
     freq (  24-  24) =       1629.5  [cm-1]   --> A'                 
     freq (  25-  25) =       1710.8  [cm-1]   --> A''                
     freq (  26-  26) =       1726.3  [cm-1]   --> A'                 
     freq (  27-  27) =       1751.4  [cm-1]   --> A''                
     freq (  28-  28) =       1782.1  [cm-1]   --> A'                 
     freq (  29-  29) =       1829.4  [cm-1]   --> A''                
     freq (  30-  30) =       1835.2  [cm-1]   --> A'                 
     freq (  31-  31) =       1895.5  [cm-1]   --> A'                 
     freq (  32-  32) =       2042.9  [cm-1]   --> A'                 
     freq (  33-  33) =       2182.0  [cm-1]   --> A'                 
     Electron-phonon interaction  ...

     Gaussian Broadening:   0.005 Ry, ngauss=   0
     DOS =  4.794684 states/spin/Ry/Unit Cell at Ef= 22.110855 eV
     lambda(    1)=  0.0028   gamma=    0.59 GHz
     lambda(    2)=  0.0040   gamma=    0.96 GHz
     lambda(    3)=  0.0110   gamma=    4.08 GHz
     lambda(    4)=  0.0592   gamma=  154.74 GHz
     lambda(    5)=  0.0332   gamma=  102.62 GHz
     lambda(    6)=  0.0172   gamma=   54.24 GHz
     lambda(    7)=  0.0025   gamma=    8.65 GHz
     lambda(    8)=  0.0143   gamma=   50.37 GHz
     lambda(    9)=  0.0633   gamma=  344.29 GHz
     lambda(   10)=  0.0204   gamma=  112.11 GHz
     lambda(   11)=  0.0308   gamma=  177.80 GHz
     lambda(   12)=  0.0031   gamma=   20.50 GHz
     lambda(   13)=  0.0183   gamma=  126.38 GHz
     lambda(   14)=  0.0074   gamma=   53.21 GHz
     lambda(   15)=  0.0078   gamma=   64.17 GHz
     lambda(   16)=  0.0097   gamma=   81.59 GHz
     lambda(   17)=  0.0060   gamma=   52.92 GHz
     lambda(   18)=  0.0061   gamma=   54.74 GHz
     lambda(   19)=  0.0104   gamma=   94.17 GHz
     lambda(   20)=  0.0103   gamma=   98.11 GHz
     lambda(   21)=  0.0058   gamma=   58.59 GHz
     lambda(   22)=  0.0062   gamma=   64.88 GHz
     lambda(   23)=  0.0028   gamma=   29.91 GHz
     lambda(   24)=  0.0152   gamma=  165.64 GHz
     lambda(   25)=  0.0030   gamma=   36.49 GHz
     lambda(   26)=  0.0053   gamma=   65.16 GHz
     lambda(   27)=  0.0021   gamma=   26.64 GHz
     lambda(   28)=  0.0071   gamma=   93.18 GHz
     lambda(   29)=  0.0092   gamma=  126.77 GHz
     lambda(   30)=  0.0134   gamma=  185.70 GHz
     lambda(   31)=  0.0073   gamma=  107.40 GHz
     lambda(   32)=  0.0111   gamma=  191.44 GHz
     lambda(   33)=  0.0054   gamma=  105.51 GHz
     Gaussian Broadening:   0.010 Ry, ngauss=   0
     DOS =  4.491154 states/spin/Ry/Unit Cell at Ef= 22.118081 eV
     lambda(    1)=  0.0031   gamma=    0.61 GHz
     lambda(    2)=  0.0042   gamma=    0.96 GHz
     lambda(    3)=  0.0061   gamma=    2.12 GHz
     lambda(    4)=  0.0330   gamma=   80.74 GHz
     lambda(    5)=  0.0190   gamma=   54.95 GHz
     lambda(    6)=  0.0119   gamma=   35.08 GHz
     lambda(    7)=  0.0042   gamma=   13.57 GHz
     lambda(    8)=  0.0120   gamma=   39.62 GHz
     lambda(    9)=  0.0268   gamma=  136.29 GHz
     lambda(   10)=  0.0231   gamma=  118.65 GHz
     lambda(   11)=  0.0244   gamma=  132.07 GHz
     lambda(   12)=  0.0046   gamma=   28.84 GHz
     lambda(   13)=  0.0135   gamma=   87.55 GHz
     lambda(   14)=  0.0076   gamma=   51.43 GHz
     lambda(   15)=  0.0088   gamma=   67.64 GHz
     lambda(   16)=  0.0106   gamma=   83.65 GHz
     lambda(   17)=  0.0084   gamma=   69.60 GHz
     lambda(   18)=  0.0066   gamma=   55.46 GHz
     lambda(   19)=  0.0107   gamma=   90.14 GHz
     lambda(   20)=  0.0106   gamma=   94.41 GHz
     lambda(   21)=  0.0051   gamma=   48.12 GHz
     lambda(   22)=  0.0068   gamma=   65.89 GHz
     lambda(   23)=  0.0047   gamma=   46.96 GHz
     lambda(   24)=  0.0148   gamma=  151.42 GHz
     lambda(   25)=  0.0026   gamma=   29.46 GHz
     lambda(   26)=  0.0048   gamma=   54.78 GHz
     lambda(   27)=  0.0059   gamma=   69.70 GHz
     lambda(   28)=  0.0107   gamma=  131.54 GHz
     lambda(   29)=  0.0066   gamma=   84.85 GHz
     lambda(   30)=  0.0070   gamma=   90.25 GHz
     lambda(   31)=  0.0082   gamma=  114.06 GHz
     lambda(   32)=  0.0040   gamma=   63.68 GHz
     lambda(   33)=  0.0023   gamma=   41.92 GHz
     Gaussian Broadening:   0.015 Ry, ngauss=   0
     DOS =  4.448291 states/spin/Ry/Unit Cell at Ef= 22.124358 eV
     lambda(    1)=  0.0036   gamma=    0.70 GHz
     lambda(    2)=  0.0049   gamma=    1.10 GHz
     lambda(    3)=  0.0064   gamma=    2.19 GHz
     lambda(    4)=  0.0334   gamma=   80.90 GHz
     lambda(    5)=  0.0177   gamma=   50.78 GHz
     lambda(    6)=  0.0132   gamma=   38.57 GHz
     lambda(    7)=  0.0056   gamma=   17.78 GHz
     lambda(    8)=  0.0128   gamma=   41.95 GHz
     lambda(    9)=  0.0241   gamma=  121.70 GHz
     lambda(   10)=  0.0265   gamma=  135.09 GHz
     lambda(   11)=  0.0242   gamma=  129.52 GHz
     lambda(   12)=  0.0058   gamma=   35.50 GHz
     lambda(   13)=  0.0133   gamma=   85.47 GHz
     lambda(   14)=  0.0080   gamma=   53.75 GHz
     lambda(   15)=  0.0102   gamma=   77.69 GHz
     lambda(   16)=  0.0124   gamma=   96.70 GHz
     lambda(   17)=  0.0112   gamma=   91.83 GHz
     lambda(   18)=  0.0069   gamma=   57.26 GHz
     lambda(   19)=  0.0116   gamma=   97.06 GHz
     lambda(   20)=  0.0115   gamma=  101.14 GHz
     lambda(   21)=  0.0058   gamma=   54.45 GHz
     lambda(   22)=  0.0081   gamma=   78.47 GHz
     lambda(   23)=  0.0066   gamma=   64.72 GHz
     lambda(   24)=  0.0165   gamma=  167.27 GHz
     lambda(   25)=  0.0025   gamma=   27.48 GHz
     lambda(   26)=  0.0061   gamma=   69.48 GHz
     lambda(   27)=  0.0082   gamma=   96.41 GHz
     lambda(   28)=  0.0135   gamma=  163.55 GHz
     lambda(   29)=  0.0084   gamma=  107.76 GHz
     lambda(   30)=  0.0059   gamma=   76.33 GHz
     lambda(   31)=  0.0092   gamma=  126.35 GHz
     lambda(   32)=  0.0037   gamma=   58.30 GHz
     lambda(   33)=  0.0022   gamma=   40.82 GHz
     Gaussian Broadening:   0.020 Ry, ngauss=   0
     DOS =  4.528357 states/spin/Ry/Unit Cell at Ef= 22.128042 eV
     lambda(    1)=  0.0040   gamma=    0.80 GHz
     lambda(    2)=  0.0052   gamma=    1.19 GHz
     lambda(    3)=  0.0073   gamma=    2.57 GHz
     lambda(    4)=  0.0360   gamma=   88.70 GHz
     lambda(    5)=  0.0184   gamma=   53.84 GHz
     lambda(    6)=  0.0145   gamma=   43.40 GHz
     lambda(    7)=  0.0064   gamma=   20.50 GHz
     lambda(    8)=  0.0138   gamma=   45.73 GHz
     lambda(    9)=  0.0248   gamma=  127.38 GHz
     lambda(   10)=  0.0275   gamma=  142.85 GHz
     lambda(   11)=  0.0232   gamma=  126.77 GHz
     lambda(   12)=  0.0067   gamma=   41.72 GHz
     lambda(   13)=  0.0138   gamma=   89.86 GHz
     lambda(   14)=  0.0083   gamma=   56.92 GHz
     lambda(   15)=  0.0107   gamma=   83.04 GHz
     lambda(   16)=  0.0140   gamma=  110.61 GHz
     lambda(   17)=  0.0130   gamma=  108.31 GHz
     lambda(   18)=  0.0074   gamma=   62.77 GHz
     lambda(   19)=  0.0125   gamma=  106.25 GHz
     lambda(   20)=  0.0124   gamma=  111.06 GHz
     lambda(   21)=  0.0066   gamma=   63.31 GHz
     lambda(   22)=  0.0086   gamma=   84.32 GHz
     lambda(   23)=  0.0080   gamma=   80.15 GHz
     lambda(   24)=  0.0177   gamma=  183.14 GHz
     lambda(   25)=  0.0025   gamma=   28.56 GHz
     lambda(   26)=  0.0074   gamma=   85.22 GHz
     lambda(   27)=  0.0099   gamma=  117.91 GHz
     lambda(   28)=  0.0147   gamma=  181.78 GHz
     lambda(   29)=  0.0100   gamma=  130.60 GHz
     lambda(   30)=  0.0061   gamma=   79.25 GHz
     lambda(   31)=  0.0100   gamma=  139.63 GHz
     lambda(   32)=  0.0043   gamma=   69.11 GHz
     lambda(   33)=  0.0026   gamma=   48.46 GHz
     Gaussian Broadening:   0.025 Ry, ngauss=   0
     DOS =  4.634996 states/spin/Ry/Unit Cell at Ef= 22.128678 eV
     lambda(    1)=  0.0043   gamma=    0.88 GHz
     lambda(    2)=  0.0054   gamma=    1.27 GHz
     lambda(    3)=  0.0081   gamma=    2.90 GHz
     lambda(    4)=  0.0375   gamma=   94.61 GHz
     lambda(    5)=  0.0192   gamma=   57.40 GHz
     lambda(    6)=  0.0154   gamma=   47.17 GHz
     lambda(    7)=  0.0068   gamma=   22.41 GHz
     lambda(    8)=  0.0143   gamma=   48.62 GHz
     lambda(    9)=  0.0258   gamma=  135.41 GHz
     lambda(   10)=  0.0279   gamma=  148.18 GHz
     lambda(   11)=  0.0226   gamma=  126.39 GHz
     lambda(   12)=  0.0073   gamma=   46.95 GHz
     lambda(   13)=  0.0143   gamma=   95.46 GHz
     lambda(   14)=  0.0085   gamma=   59.74 GHz
     lambda(   15)=  0.0109   gamma=   87.13 GHz
     lambda(   16)=  0.0151   gamma=  122.65 GHz
     lambda(   17)=  0.0142   gamma=  120.75 GHz
     lambda(   18)=  0.0080   gamma=   69.55 GHz
     lambda(   19)=  0.0133   gamma=  115.93 GHz
     lambda(   20)=  0.0132   gamma=  121.40 GHz
     lambda(   21)=  0.0074   gamma=   72.03 GHz
     lambda(   22)=  0.0087   gamma=   87.44 GHz
     lambda(   23)=  0.0088   gamma=   90.20 GHz
     lambda(   24)=  0.0189   gamma=  199.64 GHz
     lambda(   25)=  0.0027   gamma=   31.05 GHz
     lambda(   26)=  0.0082   gamma=   96.91 GHz
     lambda(   27)=  0.0111   gamma=  135.02 GHz
     lambda(   28)=  0.0154   gamma=  194.57 GHz
     lambda(   29)=  0.0112   gamma=  148.65 GHz
     lambda(   30)=  0.0064   gamma=   86.31 GHz
     lambda(   31)=  0.0104   gamma=  148.51 GHz
     lambda(   32)=  0.0047   gamma=   77.88 GHz
     lambda(   33)=  0.0030   gamma=   56.41 GHz
     Gaussian Broadening:   0.030 Ry, ngauss=   0
     DOS =  4.755068 states/spin/Ry/Unit Cell at Ef= 22.126761 eV
     lambda(    1)=  0.0046   gamma=    0.96 GHz
     lambda(    2)=  0.0056   gamma=    1.34 GHz
     lambda(    3)=  0.0086   gamma=    3.17 GHz
     lambda(    4)=  0.0377   gamma=   97.74 GHz
     lambda(    5)=  0.0197   gamma=   60.53 GHz
     lambda(    6)=  0.0159   gamma=   49.73 GHz
     lambda(    7)=  0.0070   gamma=   23.83 GHz
     lambda(    8)=  0.0145   gamma=   50.74 GHz
     lambda(    9)=  0.0263   gamma=  141.82 GHz
     lambda(   10)=  0.0281   gamma=  153.11 GHz
     lambda(   11)=  0.0225   gamma=  129.12 GHz
     lambda(   12)=  0.0078   gamma=   51.35 GHz
     lambda(   13)=  0.0148   gamma=  101.44 GHz
     lambda(   14)=  0.0087   gamma=   62.63 GHz
     lambda(   15)=  0.0112   gamma=   91.86 GHz
     lambda(   16)=  0.0158   gamma=  131.78 GHz
     lambda(   17)=  0.0149   gamma=  130.06 GHz
     lambda(   18)=  0.0086   gamma=   76.95 GHz
     lambda(   19)=  0.0140   gamma=  125.20 GHz
     lambda(   20)=  0.0139   gamma=  131.19 GHz
     lambda(   21)=  0.0080   gamma=   80.37 GHz
     lambda(   22)=  0.0087   gamma=   89.79 GHz
     lambda(   23)=  0.0092   gamma=   97.16 GHz
     lambda(   24)=  0.0199   gamma=  215.42 GHz
     lambda(   25)=  0.0029   gamma=   34.65 GHz
     lambda(   26)=  0.0087   gamma=  105.59 GHz
     lambda(   27)=  0.0118   gamma=  147.90 GHz
     lambda(   28)=  0.0156   gamma=  202.63 GHz
     lambda(   29)=  0.0119   gamma=  162.64 GHz
     lambda(   30)=  0.0068   gamma=   94.08 GHz
     lambda(   31)=  0.0105   gamma=  154.13 GHz
     lambda(   32)=  0.0049   gamma=   82.91 GHz
     lambda(   33)=  0.0033   gamma=   63.30 GHz
     Gaussian Broadening:   0.035 Ry, ngauss=   0
     DOS =  4.903732 states/spin/Ry/Unit Cell at Ef= 22.122264 eV
     lambda(    1)=  0.0049   gamma=    1.06 GHz
     lambda(    2)=  0.0058   gamma=    1.43 GHz
     lambda(    3)=  0.0090   gamma=    3.42 GHz
     lambda(    4)=  0.0373   gamma=   99.61 GHz
     lambda(    5)=  0.0202   gamma=   63.93 GHz
     lambda(    6)=  0.0160   gamma=   51.77 GHz
     lambda(    7)=  0.0072   gamma=   25.07 GHz
     lambda(    8)=  0.0147   gamma=   52.84 GHz
     lambda(    9)=  0.0265   gamma=  147.37 GHz
     lambda(   10)=  0.0283   gamma=  158.96 GHz
     lambda(   11)=  0.0228   gamma=  134.61 GHz
     lambda(   12)=  0.0082   gamma=   55.84 GHz
     lambda(   13)=  0.0152   gamma=  107.73 GHz
     lambda(   14)=  0.0089   gamma=   66.12 GHz
     lambda(   15)=  0.0117   gamma=   98.42 GHz
     lambda(   16)=  0.0162   gamma=  139.28 GHz
     lambda(   17)=  0.0153   gamma=  138.20 GHz
     lambda(   18)=  0.0093   gamma=   85.47 GHz
     lambda(   19)=  0.0146   gamma=  134.77 GHz
     lambda(   20)=  0.0145   gamma=  140.96 GHz
     lambda(   21)=  0.0087   gamma=   89.65 GHz
     lambda(   22)=  0.0087   gamma=   92.97 GHz
     lambda(   23)=  0.0095   gamma=  103.74 GHz
     lambda(   24)=  0.0206   gamma=  230.26 GHz
     lambda(   25)=  0.0032   gamma=   39.50 GHz
     lambda(   26)=  0.0091   gamma=  113.64 GHz
     lambda(   27)=  0.0123   gamma=  158.98 GHz
     lambda(   28)=  0.0156   gamma=  208.35 GHz
     lambda(   29)=  0.0124   gamma=  175.22 GHz
     lambda(   30)=  0.0073   gamma=  102.93 GHz
     lambda(   31)=  0.0106   gamma=  159.54 GHz
     lambda(   32)=  0.0049   gamma=   86.32 GHz
     lambda(   33)=  0.0035   gamma=   69.83 GHz
     Gaussian Broadening:   0.040 Ry, ngauss=   0
     DOS =  5.088867 states/spin/Ry/Unit Cell at Ef= 22.114955 eV
     lambda(    1)=  0.0053   gamma=    1.19 GHz
     lambda(    2)=  0.0062   gamma=    1.58 GHz
     lambda(    3)=  0.0094   gamma=    3.71 GHz
     lambda(    4)=  0.0365   gamma=  101.25 GHz
     lambda(    5)=  0.0208   gamma=   68.16 GHz
     lambda(    6)=  0.0161   gamma=   53.85 GHz
     lambda(    7)=  0.0073   gamma=   26.39 GHz
     lambda(    8)=  0.0148   gamma=   55.44 GHz
     lambda(    9)=  0.0265   gamma=  153.09 GHz
     lambda(   10)=  0.0286   gamma=  166.70 GHz
     lambda(   11)=  0.0233   gamma=  142.63 GHz
     lambda(   12)=  0.0087   gamma=   61.02 GHz
     lambda(   13)=  0.0156   gamma=  114.57 GHz
     lambda(   14)=  0.0092   gamma=   70.40 GHz
     lambda(   15)=  0.0123   gamma=  107.31 GHz
     lambda(   16)=  0.0165   gamma=  146.62 GHz
     lambda(   17)=  0.0157   gamma=  146.66 GHz
     lambda(   18)=  0.0100   gamma=   95.71 GHz
     lambda(   19)=  0.0152   gamma=  145.28 GHz
     lambda(   20)=  0.0150   gamma=  151.28 GHz
     lambda(   21)=  0.0094   gamma=  100.97 GHz
     lambda(   22)=  0.0089   gamma=   97.93 GHz
     lambda(   23)=  0.0099   gamma=  111.65 GHz
     lambda(   24)=  0.0211   gamma=  244.49 GHz
     lambda(   25)=  0.0036   gamma=   45.62 GHz
     lambda(   26)=  0.0094   gamma=  122.32 GHz
     lambda(   27)=  0.0127   gamma=  170.21 GHz
     lambda(   28)=  0.0154   gamma=  213.60 GHz
     lambda(   29)=  0.0129   gamma=  188.38 GHz
     lambda(   30)=  0.0077   gamma=  113.67 GHz
     lambda(   31)=  0.0106   gamma=  166.62 GHz
     lambda(   32)=  0.0049   gamma=   89.67 GHz
     lambda(   33)=  0.0037   gamma=   76.71 GHz
     Gaussian Broadening:   0.045 Ry, ngauss=   0
     DOS =  5.309480 states/spin/Ry/Unit Cell at Ef= 22.104685 eV
     lambda(    1)=  0.0059   gamma=    1.38 GHz
     lambda(    2)=  0.0067   gamma=    1.79 GHz
     lambda(    3)=  0.0098   gamma=    4.04 GHz
     lambda(    4)=  0.0356   gamma=  103.07 GHz
     lambda(    5)=  0.0214   gamma=   73.37 GHz
     lambda(    6)=  0.0161   gamma=   56.20 GHz
     lambda(    7)=  0.0074   gamma=   27.96 GHz
     lambda(    8)=  0.0151   gamma=   58.69 GHz
     lambda(    9)=  0.0265   gamma=  159.43 GHz
     lambda(   10)=  0.0290   gamma=  176.61 GHz
     lambda(   11)=  0.0239   gamma=  152.99 GHz
     lambda(   12)=  0.0091   gamma=   67.01 GHz
     lambda(   13)=  0.0159   gamma=  122.04 GHz
     lambda(   14)=  0.0094   gamma=   75.43 GHz
     lambda(   15)=  0.0130   gamma=  118.40 GHz
     lambda(   16)=  0.0166   gamma=  154.64 GHz
     lambda(   17)=  0.0160   gamma=  156.08 GHz
     lambda(   18)=  0.0108   gamma=  107.81 GHz
     lambda(   19)=  0.0157   gamma=  156.88 GHz
     lambda(   20)=  0.0154   gamma=  162.34 GHz
     lambda(   21)=  0.0103   gamma=  114.64 GHz
     lambda(   22)=  0.0091   gamma=  104.91 GHz
     lambda(   23)=  0.0103   gamma=  121.66 GHz
     lambda(   24)=  0.0213   gamma=  258.26 GHz
     lambda(   25)=  0.0040   gamma=   52.95 GHz
     lambda(   26)=  0.0097   gamma=  131.93 GHz
     lambda(   27)=  0.0131   gamma=  182.46 GHz
     lambda(   28)=  0.0152   gamma=  219.31 GHz
     lambda(   29)=  0.0133   gamma=  202.99 GHz
     lambda(   30)=  0.0082   gamma=  126.44 GHz
     lambda(   31)=  0.0107   gamma=  175.95 GHz
     lambda(   32)=  0.0049   gamma=   93.58 GHz
     lambda(   33)=  0.0039   gamma=   84.23 GHz
     Gaussian Broadening:   0.050 Ry, ngauss=   0
     DOS =  5.560451 states/spin/Ry/Unit Cell at Ef= 22.091444 eV
     lambda(    1)=  0.0067   gamma=    1.64 GHz
     lambda(    2)=  0.0074   gamma=    2.08 GHz
     lambda(    3)=  0.0103   gamma=    4.43 GHz
     lambda(    4)=  0.0347   gamma=  105.08 GHz
     lambda(    5)=  0.0222   gamma=   79.49 GHz
     lambda(    6)=  0.0161   gamma=   58.88 GHz
     lambda(    7)=  0.0075   gamma=   29.82 GHz
     lambda(    8)=  0.0153   gamma=   62.56 GHz
     lambda(    9)=  0.0264   gamma=  166.44 GHz
     lambda(   10)=  0.0296   gamma=  188.49 GHz
     lambda(   11)=  0.0247   gamma=  165.31 GHz
     lambda(   12)=  0.0096   gamma=   73.72 GHz
     lambda(   13)=  0.0162   gamma=  130.07 GHz
     lambda(   14)=  0.0097   gamma=   81.10 GHz
     lambda(   15)=  0.0137   gamma=  131.30 GHz
     lambda(   16)=  0.0168   gamma=  163.75 GHz
     lambda(   17)=  0.0163   gamma=  166.56 GHz
     lambda(   18)=  0.0117   gamma=  121.54 GHz
     lambda(   19)=  0.0162   gamma=  169.37 GHz
     lambda(   20)=  0.0158   gamma=  174.12 GHz
     lambda(   21)=  0.0111   gamma=  130.36 GHz
     lambda(   22)=  0.0094   gamma=  113.70 GHz
     lambda(   23)=  0.0109   gamma=  134.05 GHz
     lambda(   24)=  0.0214   gamma=  271.60 GHz
     lambda(   25)=  0.0044   gamma=   61.33 GHz
     lambda(   26)=  0.0100   gamma=  142.37 GHz
     lambda(   27)=  0.0134   gamma=  195.81 GHz
     lambda(   28)=  0.0149   gamma=  225.71 GHz
     lambda(   29)=  0.0137   gamma=  219.20 GHz
     lambda(   30)=  0.0088   gamma=  140.83 GHz
     lambda(   31)=  0.0109   gamma=  187.44 GHz
     lambda(   32)=  0.0049   gamma=   98.14 GHz
     lambda(   33)=  0.0041   gamma=   92.38 GHz
 
 
     Number of q in the star =   24
     List of q in the star:
          1  -0.235702260  -0.471404521   0.471404521
          2   0.235702260  -0.471404521  -0.471404521
          3  -0.235702260  -0.471404521  -0.471404521
          4  -0.235702260   0.471404521  -0.471404521
          5  -0.235702260   0.471404521   0.471404521
          6   0.235702260   0.471404521  -0.471404521
          7   0.235702260  -0.471404521   0.471404521
          8   0.235702260   0.471404521   0.471404521
          9  -0.471404521   0.471404521  -0.235702260
         10   0.471404521   0.471404521   0.235702260
         11   0.471404521   0.471404521  -0.235702260
         12   0.471404521  -0.471404521  -0.235702260
         13   0.471404521  -0.235702260  -0.471404521
         14   0.471404521   0.235702260   0.471404521
         15  -0.471404521   0.235702260  -0.471404521
         16   0.471404521   0.235702260  -0.471404521
         17  -0.471404521   0.235702260   0.471404521
         18  -0.471404521  -0.471404521   0.235702260
         19   0.471404521  -0.235702260   0.471404521
         20  -0.471404521  -0.235702260  -0.471404521
         21  -0.471404521   0.471404521   0.235702260
         22  -0.471404521  -0.235702260   0.471404521
         23   0.471404521  -0.471404521   0.235702260
         24  -0.471404521  -0.471404521  -0.235702260
 
     init_run     :      0.43s CPU      0.74s WALL (       1 calls)
     electrons    :     34.03s CPU     43.24s WALL (       1 calls)

     Called by init_run:
     wfcinit      :      0.00s CPU      0.04s WALL (       1 calls)
     potinit      :      0.21s CPU      0.44s WALL (       1 calls)
     hinit0       :      0.10s CPU      0.11s WALL (       1 calls)

     Called by electrons:
     c_bands      :     34.00s CPU     43.21s WALL (       1 calls)
     v_of_rho     :      0.02s CPU      0.07s WALL (       2 calls)
     newd         :      0.04s CPU      0.10s WALL (       2 calls)
     PAW_pot      :      0.37s CPU      0.47s WALL (       2 calls)

     Called by c_bands:
     init_us_2    :      9.40s CPU     10.74s WALL (  102960 calls)
     cegterg      :     18.16s CPU     19.06s WALL (     600 calls)

     Called by *egterg:
     cdiaghg      :      5.67s CPU      5.89s WALL (    9842 calls)
     h_psi        :   3055.24s CPU   4019.46s WALL ( 1678297 calls)
     s_psi        :     74.44s CPU     80.74s WALL ( 3424542 calls)
     g_psi        :      0.06s CPU      0.06s WALL (    9374 calls)

     Called by h_psi:
     h_psi:calbec :     52.69s CPU     57.04s WALL ( 1678297 calls)
     vloc_psi     :   2950.38s CPU   3905.95s WALL ( 1678297 calls)
     add_vuspsi   :     38.61s CPU     41.94s WALL ( 1678297 calls)

     General routines
     calbec       :    211.09s CPU    221.16s WALL ( 3544818 calls)
     fft          :      2.34s CPU      2.98s WALL (    6851 calls)
     ffts         :    170.86s CPU    266.04s WALL (    9549 calls)
     fftw         :   4151.95s CPU   5872.03s WALL (32729217 calls)
     interpolate  :      1.32s CPU      1.91s WALL (     705 calls)
     davcio       :     31.76s CPU   1721.32s WALL (  436871 calls)
 
     Parallel routines
 
     PHONON       :      2h23m CPU      3h31m WALL

     INITIALIZATION: 
     phq_setup    :      0.02s CPU      0.07s WALL (       1 calls)
     phq_init     :     37.85s CPU     43.94s WALL (       1 calls)
 
     phq_init     :     37.85s CPU     43.94s WALL (       1 calls)
     set_drhoc    :      0.00s CPU      0.00s WALL (       3 calls)
     init_vloc    :      0.01s CPU      0.03s WALL (       2 calls)
     init_us_1    :      0.15s CPU      0.27s WALL (       2 calls)
     init_us_2    :      9.40s CPU     10.74s WALL (  102960 calls)
     newd         :      0.04s CPU      0.10s WALL (       2 calls)
     dvanqq       :      1.67s CPU      1.68s WALL (       1 calls)
     drho         :     23.96s CPU     28.30s WALL (       1 calls)
     drhous       :     11.79s CPU     14.05s WALL (       1 calls)
     nldyntot     :      0.89s CPU      0.89s WALL (       1 calls)
 
     DYNAMICAL MATRIX:
     dynmat0      :      6.13s CPU      6.94s WALL (       1 calls)
     dynmat_us    :      6.07s CPU      6.88s WALL (       1 calls)
     addusdynmat  :      0.00s CPU      0.00s WALL (       1 calls)
     d2ionq       :      0.04s CPU      0.04s WALL (       1 calls)
     dynmatcc     :      0.01s CPU      0.01s WALL (       1 calls)
     phqscf       :   8535.55s CPU  12529.43s WALL (       1 calls)
     dynmatrix    :      0.15s CPU      0.24s WALL (       1 calls)
 
     phqscf       :   8535.55s CPU  12529.43s WALL (       1 calls)
     solve_linter :   8429.57s CPU  12384.69s WALL (      33 calls)
     sth_kernel   :   7533.37s CPU  10677.09s WALL (     335 calls)
     h_prec       :   2097.18s CPU   2130.07s WALL (   78390 calls)
     apply_dpot_b :    925.47s CPU   1421.20s WALL (   78390 calls)
     ortho        :    120.49s CPU    123.21s WALL (   78390 calls)
     cgsolve      :   3279.10s CPU   4262.77s WALL (   78390 calls)
     incdrhoscf   :    610.82s CPU    909.03s WALL (   78390 calls)
                                        0.00s GPU  (   78390 calls)
     addusddens   :     34.94s CPU     43.05s WALL (     368 calls)
     vpsifft      :    181.47s CPU    283.45s WALL (    7722 calls)
     dv_of_drho   :      3.08s CPU      3.46s WALL (     335 calls)
     mix_pot      :     66.38s CPU    223.83s WALL (     335 calls)
     drhodv       :    105.93s CPU    121.58s WALL (      33 calls)
     psymdvscf    :     49.03s CPU     49.66s WALL (     335 calls)
     newdq        :     28.71s CPU     28.97s WALL (     335 calls)
     adddvscf     :      9.43s CPU     10.28s WALL (   78390 calls)
     com_dvloc    :    170.02s CPU    264.71s WALL (    8844 calls)
                                        0.00s GPU  (    8844 calls)
     addcore      :      0.50s CPU      0.59s WALL (    1457 calls)
                                        0.00s GPU  (    1457 calls)
     drhodvus     :     29.57s CPU     81.47s WALL (      33 calls)
 
     dvqpsi_us    :    204.85s CPU    301.14s WALL (    7722 calls)
                                        0.00s GPU  (    7722 calls)
     dvqpsi_us_on :     23.86s CPU     24.18s WALL (    7722 calls)
 
     add_vuspsi   :     38.61s CPU     41.94s WALL ( 1678297 calls)
     addusdbec    :      4.76s CPU      5.10s WALL (   86112 calls)
 
     drhodvus     :     29.57s CPU     81.47s WALL (      33 calls)
 
      Electron-phonon coupling
     elphel       :    206.53s CPU    381.12s WALL (      33 calls)
     elphsum      :     27.30s CPU     28.21s WALL (       1 calls)
 
      General routines
     calbec       :    211.09s CPU    221.16s WALL ( 3544818 calls)
     fft          :      2.34s CPU      2.98s WALL (    6851 calls)
     ffts         :    170.86s CPU    266.04s WALL (    9549 calls)
     fftw         :   4151.95s CPU   5872.03s WALL (32729217 calls)
     davcio       :     31.76s CPU   1721.32s WALL (  436871 calls)
     write_rec    :      0.52s CPU    244.00s WALL (     368 calls)
 
      Additional routines
     ch_psi       :   3243.98s CPU   4224.26s WALL ( 1667855 calls)
     last         :    143.39s CPU    155.49s WALL ( 1667855 calls)
     Hesh         :      4.82s CPU      5.37s WALL ( 1667855 calls)
     ch_psi_all_k :    130.70s CPU    141.72s WALL ( 1667855 calls)
                                        0.00s GPU  ( 1667855 calls)
     ch_psi_calbe :     42.66s CPU     46.02s WALL ( 1667855 calls)
                                        0.00s GPU  ( 1667855 calls)
     h_psi_bgrp   :   3058.71s CPU   4023.16s WALL ( 1678297 calls)
     h_psi        :   3055.24s CPU   4019.46s WALL ( 1678297 calls)
     h_psi:pot    :   3049.13s CPU   4012.71s WALL ( 1678297 calls)
     h_psi:calbec :     52.69s CPU     57.04s WALL ( 1678297 calls)
     s_psi_bgrp   :     85.94s CPU     93.09s WALL ( 3424542 calls)
     s_psi        :     74.44s CPU     80.74s WALL ( 3424542 calls)
 
 
     PHONON       :      2h23m CPU      3h31m WALL

 
   This run was terminated on:  20:27:43  22Oct2025            

=------------------------------------------------------------------------------=
   JOB DONE.
=------------------------------------------------------------------------------=
