
     Program PHONON v.7.4.1 starts on 22Oct2025 at 17: 1:13 

     This program is part of the open-source Quantum ESPRESSO suite
     for quantum simulation of materials; please cite
         "P. Giannozzi et al., J. Phys.:Condens. Matter 21 395502 (2009);
         "P. Giannozzi et al., J. Phys.:Condens. Matter 29 465901 (2017);
         "P. Giannozzi et al., J. Chem. Phys. 152 154105 (2020);
          URL http://www.quantum-espresso.org", 
     in publications or presentations arising from this work. More details at
     http://www.quantum-espresso.org/quote

     Parallel version (MPI), running on    48 processors

     MPI processes distributed on     1 nodes
     180817 MiB available memory on the printing compute node when the environment starts
 
     Waiting for input...
     Reading input from standard input

     Reading xml data from directory:

     ./tmp/Ce1H10.save/
 
     K-points division:     npool     =       4
     R & G space division:  proc/nbgrp/npool/nimage =      12
     Subspace diagonalization in iterative solution of the eigenvalue problem:
     a serial algorithm will be used

     file Ce.paw.z_12.atompaw.wentzcovitch.v1.2.upf: wavefunction(s)  6S 0P 5D 0D 4F 0F renormalized
     file H.pbe-kjpaw_psl.1.0.0.UPF: wavefunction(s)  1S renormalized

     IMPORTANT: XC functional enforced from input :
     Exchange-correlation= PBE
                           (   1   4   3   4   0   0   0)
     Any further DFT definition will be discarded
     Please, verify this is what you really want

 
     Parallelization info
     --------------------
     sticks:   dense  smooth     PW     G-vecs:    dense   smooth      PW
     Min         226      76     22                 7730     1493     247
     Max         227      77     23                 7733     1495     249
     Sum        2713     913    271                92769    17933    2975
 
     Using Slab Decomposition
 
     Reading collected, re-writing distributed wavefunctions in ./tmp/


     Dynamical matrices for ( 6, 6, 6)  uniform grid of q-points
     (  16 q-points):
       N         xq(1)         xq(2)         xq(3) 
       1   0.000000000   0.000000000   0.000000000
       2   0.117851130   0.117851130  -0.117851130
       3   0.235702260   0.235702260  -0.235702260
       4  -0.353553391  -0.353553391   0.353553391
       5   0.235702260   0.000000000   0.000000000
       6   0.353553391   0.117851130  -0.117851130
       7  -0.235702260  -0.471404521   0.471404521
       8  -0.117851130  -0.353553391   0.353553391
       9   0.000000000  -0.235702260   0.235702260
      10   0.471404521   0.000000000   0.000000000
      11  -0.117851130  -0.589255651   0.589255651
      12  -0.000000000  -0.471404521   0.471404521
      13  -0.707106781   0.000000000   0.000000000
      14  -0.235702260  -0.471404521   0.707106781
      15  -0.117851130  -0.353553391   0.589255651
      16  -0.707106781   0.235702260   0.000000000

     Number and degeneracy of irreps per q-point
       N         xq(1)         xq(2)         xq(3)   N irreps
       1   0.000000000   0.000000000   0.000000000      13
        1   2   3   3   3   3   1   2   3   3   3   3   3
       2   0.117851130   0.117851130  -0.117851130      22
        1   1   1   1   1   1   1   1   1   1   1   2   2   2   2   2   2   2
   2   2   2   2
       3   0.235702260   0.235702260  -0.235702260      22
        1   1   1   1   1   1   1   1   1   1   1   2   2   2   2   2   2   2
   2   2   2   2
       4  -0.353553391  -0.353553391   0.353553391      22
        1   1   1   1   1   1   2   2   2   2   2   2   1   1   1   1   1   2
   2   2   2   2
       5   0.235702260   0.000000000   0.000000000      24
        1   1   1   1   1   1   1   1   1   1   1   1   1   1   1   2   2   2
   2   2   2   2   2   2
       6   0.353553391   0.117851130  -0.117851130      33
     No degeneracy
       7  -0.235702260  -0.471404521   0.471404521      33
     No degeneracy
       8  -0.117851130  -0.353553391   0.353553391      33
     No degeneracy
       9   0.000000000  -0.235702260   0.235702260      33
     No degeneracy
      10   0.471404521   0.000000000   0.000000000      24
        1   1   1   1   1   1   1   1   1   1   1   1   1   1   1   2   2   2
   2   2   2   2   2   2
      11  -0.117851130  -0.589255651   0.589255651      33
     No degeneracy
      12  -0.000000000  -0.471404521   0.471404521      33
     No degeneracy
      13  -0.707106781   0.000000000   0.000000000      24
        1   1   1   1   1   1   1   2   2   2   2   1   1   1   1   1   1   1
   1   2   2   2   2   2
      14  -0.235702260  -0.471404521   0.707106781      33
     No degeneracy
      15  -0.117851130  -0.353553391   0.589255651      33
     No degeneracy
      16  -0.707106781   0.235702260   0.000000000      33
     No degeneracy

     Saving dvscf to file. Distribute only q points, not irreducible representations.

     Calculation of q =    0.0000000  -0.2357023   0.2357023
 
     Parallelization info
     --------------------
     sticks:   dense  smooth     PW     G-vecs:    dense   smooth      PW
     Min         226      76     24                 7730     1493     273
     Max         227      77     25                 7733     1495     275
     Sum        2713     913    295                92769    17933    3287
 
     Using Slab Decomposition
 

     Title: 
     Electron-phonon coefficients for Ce1H10                                    


     bravais-lattice index     =            0
     lattice parameter (alat)  =       6.3833  a.u.
     unit-cell volume          =     183.9165 (a.u.)^3
     number of atoms/cell      =           11
     number of atomic types    =            2
     number of electrons       =        22.00
     number of Kohn-Sham states=           15
     kinetic-energy cutoff     =      80.0000  Ry
     charge density cutoff     =     960.0000  Ry
     Exchange-correlation= PBE
                           (   1   4   3   4   0   0   0)

     celldm(1)=   6.383300  celldm(2)=   0.000000  celldm(3)=   0.000000
     celldm(4)=   0.000000  celldm(5)=   0.000000  celldm(6)=   0.000000

     crystal axes: (cart. coord. in units of alat)
               a(1) = (   0.000000   0.707107   0.707107 )  
               a(2) = (   0.707107   0.000000   0.707107 )  
               a(3) = (   0.707107   0.707107   0.000000 )  

     reciprocal axes: (cart. coord. in units 2 pi/alat)
               b(1) = ( -0.707107  0.707107  0.707107 )  
               b(2) = (  0.707107 -0.707107  0.707107 )  
               b(3) = (  0.707107  0.707107 -0.707107 )  


     PseudoPot. # 1 for Ce read from file:
     /work/home/mayuan/workplace/1.typical_hydride/003.MH10/2.CeH10/250/Tc-666-paw/pp/Ce.paw.z_12.atompaw.wentzcovitch.v1.2.upf
     MD5 check sum: 2241420ff980c77e0c917a2dc8a7e08e
     Pseudo is Projector augmented-wave + core cor, Zval = 12.0
     Generated using ATOMPAW code
     Shape of augmentation charge: BESSEL
     Using radial grid of 1102 points,  8 beta functions with: 
                l(1) =   0
                l(2) =   0
                l(3) =   1
                l(4) =   1
                l(5) =   2
                l(6) =   2
                l(7) =   3
                l(8) =   3
     Q(r) pseudized with 0 coefficients 


     PseudoPot. # 2 for H  read from file:
     /work/home/mayuan/workplace/1.typical_hydride/003.MH10/2.CeH10/250/Tc-666-paw/pp/H.pbe-kjpaw_psl.1.0.0.UPF
     MD5 check sum: 3bb27c602ede137025941d095c9090b7
     Pseudo is Projector augmented-wave, Zval =  1.0
     Generated using 'atomic' code by A. Dal Corso  v.7.1
     Shape of augmentation charge: PSQ
     Using radial grid of  929 points,  2 beta functions with: 
                l(1) =   0
                l(2) =   0
     Q(r) pseudized with 0 coefficients 


     atomic species   valence    mass     pseudopotential
     Ce               12.00   140.11600     Ce( 1.00)
     H                 1.00     1.00794     H ( 1.00)

     48 Sym. Ops., with inversion, found



   Cartesian axes

     site n.     atom                  positions (alat units)
         1        Ce     tau(   1) = (   0.7071068   0.7071068   0.7071068  )
         2        H      tau(   2) = (   0.3535534   0.3535534   0.3535534  )
         3        H      tau(   3) = (   1.0606602   1.0606602   1.0606602  )
         4        H      tau(   4) = (   1.2411448   1.2411448   1.2411448  )
         5        H      tau(   5) = (   0.1730688   0.1730688   0.1730688  )
         6        H      tau(   6) = (   0.8801756   0.8801756   1.2411448  )
         7        H      tau(   7) = (   0.5340380   0.5340380   0.1730688  )
         8        H      tau(   8) = (   0.8801756   1.2411448   0.8801756  )
         9        H      tau(   9) = (   0.5340380   0.1730688   0.5340380  )
        10        H      tau(  10) = (   1.2411448   0.8801756   0.8801756  )
        11        H      tau(  11) = (   0.1730688   0.5340380   0.5340380  )

     number of k points=  1020  Gaussian smearing, width (Ry)=  0.0200

     Number of k-points >= 100: set verbosity='high' to print them.

     Dense  grid:    92769 G-vectors     FFT dimensions: (  64,  64,  64)

     Smooth grid:    17933 G-vectors     FFT dimensions: (  40,  40,  40)

     Estimated max dynamical RAM per process >      31.90 MB

     Estimated total dynamical RAM >       1.50 GB

     The potential is recalculated from file :
     ./tmp/_ph0/Ce1H10.q_9/Ce1H10.save/charge-density

     Starting wfcs are   42 atomic wfcs
     Checking if some PAW data can be deallocated... 

     Band Structure Calculation
     Davidson diagonalization with overlap

     ethr =  4.55E-11,  avg # of iterations = 18.9

     total cpu time spent up to now is       22.8 secs

     End of band structure calculation

     Number of k-points >= 100: set verbosity='high' to print the bands.

     the Fermi energy is    22.0987 ev

     Writing config to output data dir ./tmp/_ph0/Ce1H10.q_9/Ce1H10.save/ :
     XML data file

Possibly too few bands at point    1   0.00000   0.00000   0.00000

     Electron-phonon coefficients for Ce1H10                                    

     bravais-lattice index     =            0
     lattice parameter (alat)  =       6.3833  a.u.
     unit-cell volume          =     183.9165 (a.u.)^3
     number of atoms/cell      =           11
     number of atomic types    =            2
     kinetic-energy cut-off    =      80.0000  Ry
     charge density cut-off    =     960.0000  Ry
     convergence threshold     =      1.0E-14
     beta                      =       0.3000
     number of iterations used =            4
     Exchange-correlation= PBE
                           (   1   4   3   4   0   0   0)


     celldm(1)=    6.38330  celldm(2)=    0.00000  celldm(3)=    0.00000
     celldm(4)=    0.00000  celldm(5)=    0.00000  celldm(6)=    0.00000

     crystal axes: (cart. coord. in units of alat)
               a(1) = (  0.0000  0.7071  0.7071 )  
               a(2) = (  0.7071  0.0000  0.7071 )  
               a(3) = (  0.7071  0.7071  0.0000 )  

     reciprocal axes: (cart. coord. in units 2 pi/alat)
               b(1) = ( -0.7071  0.7071  0.7071 )  
               b(2) = (  0.7071 -0.7071  0.7071 )  
               b(3) = (  0.7071  0.7071 -0.7071 )  


     Atoms inside the unit cell: 

     Cartesian axes

     site n.  atom      mass           positions (alat units)
        1  Ce    140.1160   tau(    1) = (    0.70711    0.70711    0.70711  )
        2  H       1.0079   tau(    2) = (    0.35355    0.35355    0.35355  )
        3  H       1.0079   tau(    3) = (    1.06066    1.06066    1.06066  )
        4  H       1.0079   tau(    4) = (    1.24114    1.24114    1.24114  )
        5  H       1.0079   tau(    5) = (    0.17307    0.17307    0.17307  )
        6  H       1.0079   tau(    6) = (    0.88018    0.88018    1.24114  )
        7  H       1.0079   tau(    7) = (    0.53404    0.53404    0.17307  )
        8  H       1.0079   tau(    8) = (    0.88018    1.24114    0.88018  )
        9  H       1.0079   tau(    9) = (    0.53404    0.17307    0.53404  )
       10  H       1.0079   tau(   10) = (    1.24114    0.88018    0.88018  )
       11  H       1.0079   tau(   11) = (    0.17307    0.53404    0.53404  )

     Computing dynamical matrix for 
                    q = (   0.0000000  -0.2357023   0.2357023 )
 
      4 Sym.Ops. (no q -> -q+G )


     G cutoff =  990.8365  (   7731 G-vectors)     FFT grid: ( 64, 64, 64)
     G cutoff =  330.2788  (   1495 G-vectors)  smooth grid: ( 40, 40, 40)

     number of k points=  1020  Gaussian smearing, width (Ry)=  0.0200

     PseudoPot. # 1 for Ce read from file:
     /work/home/mayuan/workplace/1.typical_hydride/003.MH10/2.CeH10/250/Tc-666-paw/pp/Ce.paw.z_12.atompaw.wentzcovitch.v1.2.upf
     MD5 check sum: 2241420ff980c77e0c917a2dc8a7e08e
     Pseudo is Projector augmented-wave + core cor, Zval = 12.0
     Generated using ATOMPAW code
     Shape of augmentation charge: BESSEL
     Using radial grid of 1102 points,  8 beta functions with: 
                l(1) =   0
                l(2) =   0
                l(3) =   1
                l(4) =   1
                l(5) =   2
                l(6) =   2
                l(7) =   3
                l(8) =   3
     Q(r) pseudized with 0 coefficients 


     PseudoPot. # 2 for H  read from file:
     /work/home/mayuan/workplace/1.typical_hydride/003.MH10/2.CeH10/250/Tc-666-paw/pp/H.pbe-kjpaw_psl.1.0.0.UPF
     MD5 check sum: 3bb27c602ede137025941d095c9090b7
     Pseudo is Projector augmented-wave, Zval =  1.0
     Generated using 'atomic' code by A. Dal Corso  v.7.1
     Shape of augmentation charge: PSQ
     Using radial grid of  929 points,  2 beta functions with: 
                l(1) =   0
                l(2) =   0
     Q(r) pseudized with 0 coefficients 


     Mode symmetry, C_2v (mm2)  point group:


     Atomic displacements:
     There are   33 irreducible representations

     Representation     1      1 modes -  To be done

     Representation     2      1 modes -  To be done

     Representation     3      1 modes -  To be done

     Representation     4      1 modes -  To be done

     Representation     5      1 modes -  To be done

     Representation     6      1 modes -  To be done

     Representation     7      1 modes -  To be done

     Representation     8      1 modes -  To be done

     Representation     9      1 modes -  To be done

     Representation    10      1 modes -  To be done

     Representation    11      1 modes -  To be done

     Representation    12      1 modes -  To be done

     Representation    13      1 modes -  To be done

     Representation    14      1 modes -  To be done

     Representation    15      1 modes -  To be done

     Representation    16      1 modes -  To be done

     Representation    17      1 modes -  To be done

     Representation    18      1 modes -  To be done

     Representation    19      1 modes -  To be done

     Representation    20      1 modes -  To be done

     Representation    21      1 modes -  To be done

     Representation    22      1 modes -  To be done

     Representation    23      1 modes -  To be done

     Representation    24      1 modes -  To be done

     Representation    25      1 modes -  To be done

     Representation    26      1 modes -  To be done

     Representation    27      1 modes -  To be done

     Representation    28      1 modes -  To be done

     Representation    29      1 modes -  To be done

     Representation    30      1 modes -  To be done

     Representation    31      1 modes -  To be done

     Representation    32      1 modes -  To be done

     Representation    33      1 modes -  To be done


     Message from routine init_vloc:
     Interpolation table for Vloc re-allocated

     Alpha used in Ewald sum =   2.8000
     PHONON       :     40.64s CPU     53.48s WALL



     Representation #   1 mode #   1

     Self-consistent Calculation

      iter #   1 total cpu time :    71.4 secs   av.it.:   7.6
      thresh= 1.000E-02 alpha_mix =  0.300 |ddv_scf|^2 =  2.218E-05

      iter #   2 total cpu time :    93.4 secs   av.it.:  14.8
      thresh= 4.709E-04 alpha_mix =  0.300 |ddv_scf|^2 =  5.847E-04

      iter #   3 total cpu time :   111.1 secs   av.it.:  12.0
      thresh= 2.418E-03 alpha_mix =  0.300 |ddv_scf|^2 =  3.844E-08

      iter #   4 total cpu time :   132.8 secs   av.it.:  15.3
      thresh= 1.961E-05 alpha_mix =  0.300 |ddv_scf|^2 =  5.492E-09

      iter #   5 total cpu time :   154.4 secs   av.it.:  15.2
      thresh= 7.411E-06 alpha_mix =  0.300 |ddv_scf|^2 =  6.111E-10

      iter #   6 total cpu time :   177.2 secs   av.it.:  15.9
      thresh= 2.472E-06 alpha_mix =  0.300 |ddv_scf|^2 =  4.450E-11

      iter #   7 total cpu time :   200.3 secs   av.it.:  16.7
      thresh= 6.671E-07 alpha_mix =  0.300 |ddv_scf|^2 =  9.832E-11

      iter #   8 total cpu time :   220.6 secs   av.it.:  13.2
      thresh= 9.916E-07 alpha_mix =  0.300 |ddv_scf|^2 =  2.028E-11

      iter #   9 total cpu time :   243.1 secs   av.it.:  14.9
      thresh= 4.503E-07 alpha_mix =  0.300 |ddv_scf|^2 =  5.902E-12

      iter #  10 total cpu time :   262.4 secs   av.it.:  14.4
      thresh= 2.429E-07 alpha_mix =  0.300 |ddv_scf|^2 =  3.244E-12

      iter #  11 total cpu time :   286.7 secs   av.it.:  14.8
      thresh= 1.801E-07 alpha_mix =  0.300 |ddv_scf|^2 =  1.115E-13

      iter #  12 total cpu time :   308.6 secs   av.it.:  15.4
      thresh= 3.339E-08 alpha_mix =  0.300 |ddv_scf|^2 =  3.374E-14

      iter #  13 total cpu time :   329.5 secs   av.it.:  15.1
      thresh= 1.837E-08 alpha_mix =  0.300 |ddv_scf|^2 =  4.500E-14

      iter #  14 total cpu time :   351.5 secs   av.it.:  14.9
      thresh= 2.121E-08 alpha_mix =  0.300 |ddv_scf|^2 =  2.292E-16

     End of self-consistent calculation

     Convergence has been achieved 


     Representation #   2 mode #   2

     Self-consistent Calculation

      iter #   1 total cpu time :   387.6 secs   av.it.:   8.1
      thresh= 1.000E-02 alpha_mix =  0.300 |ddv_scf|^2 =  5.715E-05

      iter #   2 total cpu time :   405.5 secs   av.it.:  14.8
      thresh= 7.560E-04 alpha_mix =  0.300 |ddv_scf|^2 =  1.433E-03

      iter #   3 total cpu time :   423.0 secs   av.it.:  12.0
      thresh= 3.785E-03 alpha_mix =  0.300 |ddv_scf|^2 =  9.710E-07

      iter #   4 total cpu time :   441.1 secs   av.it.:  14.0
      thresh= 9.854E-05 alpha_mix =  0.300 |ddv_scf|^2 =  9.723E-08

      iter #   5 total cpu time :   460.0 secs   av.it.:  14.0
      thresh= 3.118E-05 alpha_mix =  0.300 |ddv_scf|^2 =  1.719E-09

      iter #   6 total cpu time :   477.5 secs   av.it.:  15.8
      thresh= 4.146E-06 alpha_mix =  0.300 |ddv_scf|^2 =  5.797E-11

      iter #   7 total cpu time :   497.8 secs   av.it.:  16.8
      thresh= 7.614E-07 alpha_mix =  0.300 |ddv_scf|^2 =  4.189E-10

      iter #   8 total cpu time :   516.6 secs   av.it.:  13.1
      thresh= 2.047E-06 alpha_mix =  0.300 |ddv_scf|^2 =  1.669E-11

      iter #   9 total cpu time :   535.1 secs   av.it.:  15.1
      thresh= 4.085E-07 alpha_mix =  0.300 |ddv_scf|^2 =  7.862E-13

      iter #  10 total cpu time :   554.9 secs   av.it.:  16.9
      thresh= 8.867E-08 alpha_mix =  0.300 |ddv_scf|^2 =  1.783E-12

      iter #  11 total cpu time :   574.1 secs   av.it.:  13.3
      thresh= 1.335E-07 alpha_mix =  0.300 |ddv_scf|^2 =  3.602E-14

      iter #  12 total cpu time :   593.9 secs   av.it.:  15.5
      thresh= 1.898E-08 alpha_mix =  0.300 |ddv_scf|^2 =  1.352E-14

      iter #  13 total cpu time :   615.4 secs   av.it.:  16.2
      thresh= 1.163E-08 alpha_mix =  0.300 |ddv_scf|^2 =  1.595E-14

      iter #  14 total cpu time :   635.1 secs   av.it.:  13.1
      thresh= 1.263E-08 alpha_mix =  0.300 |ddv_scf|^2 =  3.121E-15

     End of self-consistent calculation

     Convergence has been achieved 


     Representation #   3 mode #   3

     Self-consistent Calculation

      iter #   1 total cpu time :   664.9 secs   av.it.:   7.8
      thresh= 1.000E-02 alpha_mix =  0.300 |ddv_scf|^2 =  1.349E-05

      iter #   2 total cpu time :   680.6 secs   av.it.:  14.9
      thresh= 3.673E-04 alpha_mix =  0.300 |ddv_scf|^2 =  3.495E-04

      iter #   3 total cpu time :   696.0 secs   av.it.:  12.0
      thresh= 1.870E-03 alpha_mix =  0.300 |ddv_scf|^2 =  6.700E-08

      iter #   4 total cpu time :   715.2 secs   av.it.:  15.3
      thresh= 2.588E-05 alpha_mix =  0.300 |ddv_scf|^2 =  5.811E-09

      iter #   5 total cpu time :   732.4 secs   av.it.:  15.8
      thresh= 7.623E-06 alpha_mix =  0.300 |ddv_scf|^2 =  1.016E-09

      iter #   6 total cpu time :   748.5 secs   av.it.:  15.9
      thresh= 3.188E-06 alpha_mix =  0.300 |ddv_scf|^2 =  4.404E-11

      iter #   7 total cpu time :   768.4 secs   av.it.:  16.8
      thresh= 6.637E-07 alpha_mix =  0.300 |ddv_scf|^2 =  2.682E-11

      iter #   8 total cpu time :   788.4 secs   av.it.:  14.6
      thresh= 5.179E-07 alpha_mix =  0.300 |ddv_scf|^2 =  1.060E-10

      iter #   9 total cpu time :   814.9 secs   av.it.:  13.8
      thresh= 1.030E-06 alpha_mix =  0.300 |ddv_scf|^2 =  7.958E-13

      iter #  10 total cpu time :   834.1 secs   av.it.:  16.5
      thresh= 8.921E-08 alpha_mix =  0.300 |ddv_scf|^2 =  5.723E-13

      iter #  11 total cpu time :   852.5 secs   av.it.:  14.6
      thresh= 7.565E-08 alpha_mix =  0.300 |ddv_scf|^2 =  1.992E-13

      iter #  12 total cpu time :   869.1 secs   av.it.:  14.9
      thresh= 4.463E-08 alpha_mix =  0.300 |ddv_scf|^2 =  4.619E-14

      iter #  13 total cpu time :   888.7 secs   av.it.:  15.4
      thresh= 2.149E-08 alpha_mix =  0.300 |ddv_scf|^2 =  2.876E-14

      iter #  14 total cpu time :   907.2 secs   av.it.:  14.1
      thresh= 1.696E-08 alpha_mix =  0.300 |ddv_scf|^2 =  2.877E-15

     End of self-consistent calculation

     Convergence has been achieved 


     Representation #   4 mode #   4

     Self-consistent Calculation

      iter #   1 total cpu time :   934.1 secs   av.it.:   7.9
      thresh= 1.000E-02 alpha_mix =  0.300 |ddv_scf|^2 =  2.727E-05

      iter #   2 total cpu time :   949.4 secs   av.it.:  14.8
      thresh= 5.222E-04 alpha_mix =  0.300 |ddv_scf|^2 =  7.130E-04

      iter #   3 total cpu time :   967.0 secs   av.it.:  12.0
      thresh= 2.670E-03 alpha_mix =  0.300 |ddv_scf|^2 =  8.437E-08

      iter #   4 total cpu time :   984.7 secs   av.it.:  15.1
      thresh= 2.905E-05 alpha_mix =  0.300 |ddv_scf|^2 =  3.246E-09

      iter #   5 total cpu time :  1004.4 secs   av.it.:  15.9
      thresh= 5.697E-06 alpha_mix =  0.300 |ddv_scf|^2 =  1.220E-09

      iter #   6 total cpu time :  1022.7 secs   av.it.:  16.0
      thresh= 3.493E-06 alpha_mix =  0.300 |ddv_scf|^2 =  5.869E-11

      iter #   7 total cpu time :  1042.2 secs   av.it.:  17.0
      thresh= 7.661E-07 alpha_mix =  0.300 |ddv_scf|^2 =  4.914E-10

      iter #   8 total cpu time :  1060.8 secs   av.it.:  12.8
      thresh= 2.217E-06 alpha_mix =  0.300 |ddv_scf|^2 =  1.735E-11

      iter #   9 total cpu time :  1079.1 secs   av.it.:  15.2
      thresh= 4.165E-07 alpha_mix =  0.300 |ddv_scf|^2 =  1.510E-11

      iter #  10 total cpu time :  1099.4 secs   av.it.:  14.4
      thresh= 3.886E-07 alpha_mix =  0.300 |ddv_scf|^2 =  5.151E-12

      iter #  11 total cpu time :  1118.4 secs   av.it.:  14.8
      thresh= 2.270E-07 alpha_mix =  0.300 |ddv_scf|^2 =  9.322E-14

      iter #  12 total cpu time :  1139.3 secs   av.it.:  15.3
      thresh= 3.053E-08 alpha_mix =  0.300 |ddv_scf|^2 =  9.071E-15

     End of self-consistent calculation

     Convergence has been achieved 


     Representation #   5 mode #   5

     Self-consistent Calculation

      iter #   1 total cpu time :  1168.9 secs   av.it.:   7.8
      thresh= 1.000E-02 alpha_mix =  0.300 |ddv_scf|^2 =  1.427E-05

      iter #   2 total cpu time :  1185.2 secs   av.it.:  14.9
      thresh= 3.778E-04 alpha_mix =  0.300 |ddv_scf|^2 =  3.987E-04

      iter #   3 total cpu time :  1205.0 secs   av.it.:  12.0
      thresh= 1.997E-03 alpha_mix =  0.300 |ddv_scf|^2 =  1.057E-07

      iter #   4 total cpu time :  1223.4 secs   av.it.:  15.3
      thresh= 3.251E-05 alpha_mix =  0.300 |ddv_scf|^2 =  1.683E-07

      iter #   5 total cpu time :  1242.9 secs   av.it.:  13.6
      thresh= 4.103E-05 alpha_mix =  0.300 |ddv_scf|^2 =  6.145E-09

      iter #   6 total cpu time :  1261.4 secs   av.it.:  14.8
      thresh= 7.839E-06 alpha_mix =  0.300 |ddv_scf|^2 =  1.520E-10

      iter #   7 total cpu time :  1281.6 secs   av.it.:  16.1
      thresh= 1.233E-06 alpha_mix =  0.300 |ddv_scf|^2 =  8.120E-11

      iter #   8 total cpu time :  1302.1 secs   av.it.:  13.4
      thresh= 9.011E-07 alpha_mix =  0.300 |ddv_scf|^2 =  1.375E-11

      iter #   9 total cpu time :  1322.8 secs   av.it.:  15.2
      thresh= 3.709E-07 alpha_mix =  0.300 |ddv_scf|^2 =  1.512E-12

      iter #  10 total cpu time :  1341.8 secs   av.it.:  16.2
      thresh= 1.230E-07 alpha_mix =  0.300 |ddv_scf|^2 =  8.199E-14

      iter #  11 total cpu time :  1362.8 secs   av.it.:  16.3
      thresh= 2.863E-08 alpha_mix =  0.300 |ddv_scf|^2 =  1.288E-13

      iter #  12 total cpu time :  1381.2 secs   av.it.:  15.4
      thresh= 3.589E-08 alpha_mix =  0.300 |ddv_scf|^2 =  8.176E-15

     End of self-consistent calculation

     Convergence has been achieved 


     Representation #   6 mode #   6

     Self-consistent Calculation

      iter #   1 total cpu time :  1408.9 secs   av.it.:  11.9
      thresh= 1.000E-02 alpha_mix =  0.300 |ddv_scf|^2 =  4.411E-03

      iter #   2 total cpu time :  1427.9 secs   av.it.:  14.7
      thresh= 6.642E-03 alpha_mix =  0.300 |ddv_scf|^2 =  1.049E-01

      iter #   3 total cpu time :  1450.0 secs   av.it.:  14.0
      thresh= 1.000E-02 alpha_mix =  0.300 |ddv_scf|^2 =  2.178E-04

      iter #   4 total cpu time :  1468.5 secs   av.it.:  13.3
      thresh= 1.476E-03 alpha_mix =  0.300 |ddv_scf|^2 =  2.951E-05

      iter #   5 total cpu time :  1486.5 secs   av.it.:  12.7
      thresh= 5.432E-04 alpha_mix =  0.300 |ddv_scf|^2 =  1.185E-07

      iter #   6 total cpu time :  1504.6 secs   av.it.:  14.6
      thresh= 3.443E-05 alpha_mix =  0.300 |ddv_scf|^2 =  6.301E-10

      iter #   7 total cpu time :  1530.0 secs   av.it.:  16.2
      thresh= 2.510E-06 alpha_mix =  0.300 |ddv_scf|^2 =  1.676E-09

      iter #   8 total cpu time :  1548.5 secs   av.it.:  13.3
      thresh= 4.094E-06 alpha_mix =  0.300 |ddv_scf|^2 =  1.719E-09

      iter #   9 total cpu time :  1565.7 secs   av.it.:  14.7
      thresh= 4.146E-06 alpha_mix =  0.300 |ddv_scf|^2 =  1.196E-11

      iter #  10 total cpu time :  1584.2 secs   av.it.:  16.0
      thresh= 3.458E-07 alpha_mix =  0.300 |ddv_scf|^2 =  2.754E-11

      iter #  11 total cpu time :  1601.9 secs   av.it.:  15.0
      thresh= 5.248E-07 alpha_mix =  0.300 |ddv_scf|^2 =  2.107E-13

      iter #  12 total cpu time :  1622.5 secs   av.it.:  15.6
      thresh= 4.590E-08 alpha_mix =  0.300 |ddv_scf|^2 =  3.002E-13

      iter #  13 total cpu time :  1644.9 secs   av.it.:  14.9
      thresh= 5.479E-08 alpha_mix =  0.300 |ddv_scf|^2 =  1.642E-13

      iter #  14 total cpu time :  1664.0 secs   av.it.:  14.2
      thresh= 4.053E-08 alpha_mix =  0.300 |ddv_scf|^2 =  1.677E-14

      iter #  15 total cpu time :  1681.2 secs   av.it.:  14.2
      thresh= 1.295E-08 alpha_mix =  0.300 |ddv_scf|^2 =  6.048E-15

     End of self-consistent calculation

     Convergence has been achieved 


     Representation #   7 mode #   7

     Self-consistent Calculation

      iter #   1 total cpu time :  1711.8 secs   av.it.:   7.7
      thresh= 1.000E-02 alpha_mix =  0.300 |ddv_scf|^2 =  1.941E-05

      iter #   2 total cpu time :  1728.5 secs   av.it.:  14.7
      thresh= 4.406E-04 alpha_mix =  0.300 |ddv_scf|^2 =  4.806E-04

      iter #   3 total cpu time :  1747.4 secs   av.it.:  12.0
      thresh= 2.192E-03 alpha_mix =  0.300 |ddv_scf|^2 =  4.546E-07

      iter #   4 total cpu time :  1764.8 secs   av.it.:  14.0
      thresh= 6.742E-05 alpha_mix =  0.300 |ddv_scf|^2 =  5.190E-08

      iter #   5 total cpu time :  1782.0 secs   av.it.:  14.3
      thresh= 2.278E-05 alpha_mix =  0.300 |ddv_scf|^2 =  1.638E-09

      iter #   6 total cpu time :  1807.9 secs   av.it.:  16.2
      thresh= 4.048E-06 alpha_mix =  0.300 |ddv_scf|^2 =  6.430E-11

      iter #   7 total cpu time :  1826.6 secs   av.it.:  16.1
      thresh= 8.019E-07 alpha_mix =  0.300 |ddv_scf|^2 =  2.660E-10

      iter #   8 total cpu time :  1845.1 secs   av.it.:  13.7
      thresh= 1.631E-06 alpha_mix =  0.300 |ddv_scf|^2 =  3.585E-11

      iter #   9 total cpu time :  1865.2 secs   av.it.:  14.6
      thresh= 5.987E-07 alpha_mix =  0.300 |ddv_scf|^2 =  6.937E-12

      iter #  10 total cpu time :  1884.0 secs   av.it.:  14.9
      thresh= 2.634E-07 alpha_mix =  0.300 |ddv_scf|^2 =  1.950E-13

      iter #  11 total cpu time :  1903.6 secs   av.it.:  14.8
      thresh= 4.415E-08 alpha_mix =  0.300 |ddv_scf|^2 =  1.354E-13

      iter #  12 total cpu time :  1923.2 secs   av.it.:  15.4
      thresh= 3.680E-08 alpha_mix =  0.300 |ddv_scf|^2 =  3.031E-14

      iter #  13 total cpu time :  1940.8 secs   av.it.:  14.7
      thresh= 1.741E-08 alpha_mix =  0.300 |ddv_scf|^2 =  6.049E-15

     End of self-consistent calculation

     Convergence has been achieved 


     Representation #   8 mode #   8

     Self-consistent Calculation

      iter #   1 total cpu time :  1974.1 secs   av.it.:   7.8
      thresh= 1.000E-02 alpha_mix =  0.300 |ddv_scf|^2 =  5.208E-05

      iter #   2 total cpu time :  1991.1 secs   av.it.:  14.7
      thresh= 7.216E-04 alpha_mix =  0.300 |ddv_scf|^2 =  1.305E-03

      iter #   3 total cpu time :  2008.1 secs   av.it.:  12.0
      thresh= 3.613E-03 alpha_mix =  0.300 |ddv_scf|^2 =  8.962E-07

      iter #   4 total cpu time :  2026.8 secs   av.it.:  13.7
      thresh= 9.467E-05 alpha_mix =  0.300 |ddv_scf|^2 =  1.523E-07

      iter #   5 total cpu time :  2044.7 secs   av.it.:  13.4
      thresh= 3.902E-05 alpha_mix =  0.300 |ddv_scf|^2 =  3.821E-09

      iter #   6 total cpu time :  2062.3 secs   av.it.:  15.0
      thresh= 6.182E-06 alpha_mix =  0.300 |ddv_scf|^2 =  1.537E-10

      iter #   7 total cpu time :  2081.7 secs   av.it.:  15.6
      thresh= 1.240E-06 alpha_mix =  0.300 |ddv_scf|^2 =  9.236E-12

      iter #   8 total cpu time :  2099.5 secs   av.it.:  15.8
      thresh= 3.039E-07 alpha_mix =  0.300 |ddv_scf|^2 =  8.849E-11

      iter #   9 total cpu time :  2118.9 secs   av.it.:  13.1
      thresh= 9.407E-07 alpha_mix =  0.300 |ddv_scf|^2 =  9.745E-12

      iter #  10 total cpu time :  2135.3 secs   av.it.:  15.2
      thresh= 3.122E-07 alpha_mix =  0.300 |ddv_scf|^2 =  5.248E-12

      iter #  11 total cpu time :  2150.8 secs   av.it.:  14.5
      thresh= 2.291E-07 alpha_mix =  0.300 |ddv_scf|^2 =  5.034E-14

      iter #  12 total cpu time :  2170.6 secs   av.it.:  15.7
      thresh= 2.244E-08 alpha_mix =  0.300 |ddv_scf|^2 =  9.803E-14

      iter #  13 total cpu time :  2190.4 secs   av.it.:  14.6
      thresh= 3.131E-08 alpha_mix =  0.300 |ddv_scf|^2 =  2.892E-14

      iter #  14 total cpu time :  2208.0 secs   av.it.:  14.1
      thresh= 1.701E-08 alpha_mix =  0.300 |ddv_scf|^2 =  6.062E-15

     End of self-consistent calculation

     Convergence has been achieved 


     Representation #   9 mode #   9

     Self-consistent Calculation

      iter #   1 total cpu time :  2240.3 secs   av.it.:   8.0
      thresh= 1.000E-02 alpha_mix =  0.300 |ddv_scf|^2 =  4.928E-05

      iter #   2 total cpu time :  2257.2 secs   av.it.:  14.7
      thresh= 7.020E-04 alpha_mix =  0.300 |ddv_scf|^2 =  1.200E-03

      iter #   3 total cpu time :  2275.5 secs   av.it.:  12.1
      thresh= 3.464E-03 alpha_mix =  0.300 |ddv_scf|^2 =  1.639E-06

      iter #   4 total cpu time :  2296.7 secs   av.it.:  13.6
      thresh= 1.280E-04 alpha_mix =  0.300 |ddv_scf|^2 =  2.615E-07

      iter #   5 total cpu time :  2316.3 secs   av.it.:  13.3
      thresh= 5.113E-05 alpha_mix =  0.300 |ddv_scf|^2 =  1.036E-09

      iter #   6 total cpu time :  2337.1 secs   av.it.:  16.4
      thresh= 3.219E-06 alpha_mix =  0.300 |ddv_scf|^2 =  4.579E-11

      iter #   7 total cpu time :  2356.5 secs   av.it.:  16.3
      thresh= 6.767E-07 alpha_mix =  0.300 |ddv_scf|^2 =  1.162E-10

      iter #   8 total cpu time :  2377.7 secs   av.it.:  13.1
      thresh= 1.078E-06 alpha_mix =  0.300 |ddv_scf|^2 =  2.183E-11

      iter #   9 total cpu time :  2400.9 secs   av.it.:  15.5
      thresh= 4.672E-07 alpha_mix =  0.300 |ddv_scf|^2 =  2.820E-12

      iter #  10 total cpu time :  2419.5 secs   av.it.:  15.1
      thresh= 1.679E-07 alpha_mix =  0.300 |ddv_scf|^2 =  5.222E-13

      iter #  11 total cpu time :  2443.2 secs   av.it.:  15.6
      thresh= 7.227E-08 alpha_mix =  0.300 |ddv_scf|^2 =  1.615E-14

      iter #  12 total cpu time :  2464.8 secs   av.it.:  16.0
      thresh= 1.271E-08 alpha_mix =  0.300 |ddv_scf|^2 =  6.530E-15

     End of self-consistent calculation

     Convergence has been achieved 


     Representation #  10 mode #  10

     Self-consistent Calculation

      iter #   1 total cpu time :  2492.0 secs   av.it.:   8.2
      thresh= 1.000E-02 alpha_mix =  0.300 |ddv_scf|^2 =  1.433E-04

      iter #   2 total cpu time :  2509.8 secs   av.it.:  14.7
      thresh= 1.197E-03 alpha_mix =  0.300 |ddv_scf|^2 =  3.702E-03

      iter #   3 total cpu time :  2526.9 secs   av.it.:  12.0
      thresh= 6.085E-03 alpha_mix =  0.300 |ddv_scf|^2 =  8.772E-07

      iter #   4 total cpu time :  2546.7 secs   av.it.:  13.8
      thresh= 9.366E-05 alpha_mix =  0.300 |ddv_scf|^2 =  7.786E-08

      iter #   5 total cpu time :  2567.4 secs   av.it.:  14.0
      thresh= 2.790E-05 alpha_mix =  0.300 |ddv_scf|^2 =  2.195E-08

      iter #   6 total cpu time :  2585.5 secs   av.it.:  14.2
      thresh= 1.482E-05 alpha_mix =  0.300 |ddv_scf|^2 =  2.648E-10

      iter #   7 total cpu time :  2607.8 secs   av.it.:  15.4
      thresh= 1.627E-06 alpha_mix =  0.300 |ddv_scf|^2 =  2.104E-11

      iter #   8 total cpu time :  2629.6 secs   av.it.:  15.0
      thresh= 4.586E-07 alpha_mix =  0.300 |ddv_scf|^2 =  6.978E-11

      iter #   9 total cpu time :  2649.8 secs   av.it.:  13.7
      thresh= 8.354E-07 alpha_mix =  0.300 |ddv_scf|^2 =  9.746E-13

      iter #  10 total cpu time :  2671.6 secs   av.it.:  16.7
      thresh= 9.872E-08 alpha_mix =  0.300 |ddv_scf|^2 =  5.165E-14

      iter #  11 total cpu time :  2694.4 secs   av.it.:  15.7
      thresh= 2.273E-08 alpha_mix =  0.300 |ddv_scf|^2 =  3.580E-14

      iter #  12 total cpu time :  2717.8 secs   av.it.:  15.9
      thresh= 1.892E-08 alpha_mix =  0.300 |ddv_scf|^2 =  1.577E-14

      iter #  13 total cpu time :  2738.8 secs   av.it.:  14.1
      thresh= 1.256E-08 alpha_mix =  0.300 |ddv_scf|^2 =  2.032E-15

     End of self-consistent calculation

     Convergence has been achieved 


     Representation #  11 mode #  11

     Self-consistent Calculation

      iter #   1 total cpu time :  2764.4 secs   av.it.:   6.5
      thresh= 1.000E-02 alpha_mix =  0.300 |ddv_scf|^2 =  3.346E-09

      iter #   2 total cpu time :  2782.4 secs   av.it.:  15.5
      thresh= 5.784E-06 alpha_mix =  0.300 |ddv_scf|^2 =  1.103E-09

      iter #   3 total cpu time :  2800.7 secs   av.it.:  16.1
      thresh= 3.320E-06 alpha_mix =  0.300 |ddv_scf|^2 =  6.995E-11

      iter #   4 total cpu time :  2820.8 secs   av.it.:  16.4
      thresh= 8.364E-07 alpha_mix =  0.300 |ddv_scf|^2 =  1.504E-12

      iter #   5 total cpu time :  2841.3 secs   av.it.:  16.2
      thresh= 1.226E-07 alpha_mix =  0.300 |ddv_scf|^2 =  3.752E-13

      iter #   6 total cpu time :  2861.3 secs   av.it.:  16.4
      thresh= 6.125E-08 alpha_mix =  0.300 |ddv_scf|^2 =  5.946E-15

     End of self-consistent calculation

     Convergence has been achieved 


     Representation #  12 mode #  12

     Self-consistent Calculation

      iter #   1 total cpu time :  2888.6 secs   av.it.:   6.5
      thresh= 1.000E-02 alpha_mix =  0.300 |ddv_scf|^2 =  1.176E-08

      iter #   2 total cpu time :  2908.1 secs   av.it.:  15.2
      thresh= 1.084E-05 alpha_mix =  0.300 |ddv_scf|^2 =  2.707E-09

      iter #   3 total cpu time :  2927.4 secs   av.it.:  15.9
      thresh= 5.203E-06 alpha_mix =  0.300 |ddv_scf|^2 =  6.934E-11

      iter #   4 total cpu time :  2947.3 secs   av.it.:  16.4
      thresh= 8.327E-07 alpha_mix =  0.300 |ddv_scf|^2 =  2.041E-12

      iter #   5 total cpu time :  2968.5 secs   av.it.:  16.1
      thresh= 1.428E-07 alpha_mix =  0.300 |ddv_scf|^2 =  2.516E-13

      iter #   6 total cpu time :  2987.4 secs   av.it.:  16.6
      thresh= 5.016E-08 alpha_mix =  0.300 |ddv_scf|^2 =  7.539E-15

     End of self-consistent calculation

     Convergence has been achieved 


     Representation #  13 mode #  13

     Self-consistent Calculation

      iter #   1 total cpu time :  3014.1 secs   av.it.:   6.9
      thresh= 1.000E-02 alpha_mix =  0.300 |ddv_scf|^2 =  3.068E-08

      iter #   2 total cpu time :  3034.4 secs   av.it.:  15.0
      thresh= 1.752E-05 alpha_mix =  0.300 |ddv_scf|^2 =  6.639E-09

      iter #   3 total cpu time :  3052.1 secs   av.it.:  15.9
      thresh= 8.148E-06 alpha_mix =  0.300 |ddv_scf|^2 =  9.286E-11

      iter #   4 total cpu time :  3071.3 secs   av.it.:  16.3
      thresh= 9.636E-07 alpha_mix =  0.300 |ddv_scf|^2 =  1.499E-12

      iter #   5 total cpu time :  3090.0 secs   av.it.:  15.6
      thresh= 1.224E-07 alpha_mix =  0.300 |ddv_scf|^2 =  3.742E-13

      iter #   6 total cpu time :  3110.9 secs   av.it.:  16.4
      thresh= 6.117E-08 alpha_mix =  0.300 |ddv_scf|^2 =  1.127E-14

      iter #   7 total cpu time :  3131.8 secs   av.it.:  16.2
      thresh= 1.062E-08 alpha_mix =  0.300 |ddv_scf|^2 =  8.734E-17

     End of self-consistent calculation

     Convergence has been achieved 


     Representation #  14 mode #  14

     Self-consistent Calculation

      iter #   1 total cpu time :  3159.7 secs   av.it.:   6.9
      thresh= 1.000E-02 alpha_mix =  0.300 |ddv_scf|^2 =  1.624E-08

      iter #   2 total cpu time :  3177.7 secs   av.it.:  15.3
      thresh= 1.274E-05 alpha_mix =  0.300 |ddv_scf|^2 =  3.778E-09

      iter #   3 total cpu time :  3195.1 secs   av.it.:  16.1
      thresh= 6.146E-06 alpha_mix =  0.300 |ddv_scf|^2 =  1.023E-10

      iter #   4 total cpu time :  3212.8 secs   av.it.:  16.7
      thresh= 1.012E-06 alpha_mix =  0.300 |ddv_scf|^2 =  1.729E-12

      iter #   5 total cpu time :  3232.7 secs   av.it.:  16.0
      thresh= 1.315E-07 alpha_mix =  0.300 |ddv_scf|^2 =  4.663E-13

      iter #   6 total cpu time :  3256.3 secs   av.it.:  16.6
      thresh= 6.829E-08 alpha_mix =  0.300 |ddv_scf|^2 =  1.177E-14

      iter #   7 total cpu time :  3274.3 secs   av.it.:  16.7
      thresh= 1.085E-08 alpha_mix =  0.300 |ddv_scf|^2 =  1.055E-16

     End of self-consistent calculation

     Convergence has been achieved 


     Representation #  15 mode #  15

     Self-consistent Calculation

      iter #   1 total cpu time :  3303.5 secs   av.it.:   6.9
      thresh= 1.000E-02 alpha_mix =  0.300 |ddv_scf|^2 =  1.624E-08

      iter #   2 total cpu time :  3325.4 secs   av.it.:  15.3
      thresh= 1.274E-05 alpha_mix =  0.300 |ddv_scf|^2 =  3.778E-09

      iter #   3 total cpu time :  3345.0 secs   av.it.:  16.1
      thresh= 6.146E-06 alpha_mix =  0.300 |ddv_scf|^2 =  1.023E-10

      iter #   4 total cpu time :  3365.0 secs   av.it.:  16.7
      thresh= 1.012E-06 alpha_mix =  0.300 |ddv_scf|^2 =  1.729E-12

      iter #   5 total cpu time :  3384.8 secs   av.it.:  16.0
      thresh= 1.315E-07 alpha_mix =  0.300 |ddv_scf|^2 =  4.663E-13

      iter #   6 total cpu time :  3405.0 secs   av.it.:  16.6
      thresh= 6.829E-08 alpha_mix =  0.300 |ddv_scf|^2 =  1.177E-14

      iter #   7 total cpu time :  3424.4 secs   av.it.:  16.7
      thresh= 1.085E-08 alpha_mix =  0.300 |ddv_scf|^2 =  1.055E-16

     End of self-consistent calculation

     Convergence has been achieved 


     Representation #  16 mode #  16

     Self-consistent Calculation

      iter #   1 total cpu time :  3451.9 secs   av.it.:   6.6
      thresh= 1.000E-02 alpha_mix =  0.300 |ddv_scf|^2 =  7.604E-09

      iter #   2 total cpu time :  3471.1 secs   av.it.:  15.4
      thresh= 8.720E-06 alpha_mix =  0.300 |ddv_scf|^2 =  1.861E-09

      iter #   3 total cpu time :  3490.2 secs   av.it.:  16.1
      thresh= 4.314E-06 alpha_mix =  0.300 |ddv_scf|^2 =  7.239E-11

      iter #   4 total cpu time :  3511.7 secs   av.it.:  16.5
      thresh= 8.508E-07 alpha_mix =  0.300 |ddv_scf|^2 =  1.625E-12

      iter #   5 total cpu time :  3533.3 secs   av.it.:  16.2
      thresh= 1.275E-07 alpha_mix =  0.300 |ddv_scf|^2 =  2.447E-13

      iter #   6 total cpu time :  3551.3 secs   av.it.:  16.6
      thresh= 4.947E-08 alpha_mix =  0.300 |ddv_scf|^2 =  1.980E-15

     End of self-consistent calculation

     Convergence has been achieved 


     Representation #  17 mode #  17

     Self-consistent Calculation

      iter #   1 total cpu time :  3581.6 secs   av.it.:   7.0
      thresh= 1.000E-02 alpha_mix =  0.300 |ddv_scf|^2 =  1.891E-08

      iter #   2 total cpu time :  3602.2 secs   av.it.:  15.6
      thresh= 1.375E-05 alpha_mix =  0.300 |ddv_scf|^2 =  4.311E-09

      iter #   3 total cpu time :  3621.2 secs   av.it.:  16.3
      thresh= 6.566E-06 alpha_mix =  0.300 |ddv_scf|^2 =  2.251E-10

      iter #   4 total cpu time :  3639.9 secs   av.it.:  16.8
      thresh= 1.500E-06 alpha_mix =  0.300 |ddv_scf|^2 =  4.006E-12

      iter #   5 total cpu time :  3658.6 secs   av.it.:  16.2
      thresh= 2.002E-07 alpha_mix =  0.300 |ddv_scf|^2 =  7.381E-13

      iter #   6 total cpu time :  3678.4 secs   av.it.:  16.4
      thresh= 8.591E-08 alpha_mix =  0.300 |ddv_scf|^2 =  6.466E-14

      iter #   7 total cpu time :  3698.0 secs   av.it.:  16.6
      thresh= 2.543E-08 alpha_mix =  0.300 |ddv_scf|^2 =  2.874E-15

     End of self-consistent calculation

     Convergence has been achieved 


     Representation #  18 mode #  18

     Self-consistent Calculation

      iter #   1 total cpu time :  3726.9 secs   av.it.:   7.3
      thresh= 1.000E-02 alpha_mix =  0.300 |ddv_scf|^2 =  4.739E-08

      iter #   2 total cpu time :  3746.0 secs   av.it.:  15.5
      thresh= 2.177E-05 alpha_mix =  0.300 |ddv_scf|^2 =  8.915E-09

      iter #   3 total cpu time :  3765.4 secs   av.it.:  16.3
      thresh= 9.442E-06 alpha_mix =  0.300 |ddv_scf|^2 =  2.049E-10

      iter #   4 total cpu time :  3785.5 secs   av.it.:  17.0
      thresh= 1.432E-06 alpha_mix =  0.300 |ddv_scf|^2 =  4.830E-12

      iter #   5 total cpu time :  3805.0 secs   av.it.:  16.2
      thresh= 2.198E-07 alpha_mix =  0.300 |ddv_scf|^2 =  9.078E-13

      iter #   6 total cpu time :  3824.6 secs   av.it.:  16.3
      thresh= 9.528E-08 alpha_mix =  0.300 |ddv_scf|^2 =  1.135E-13

      iter #   7 total cpu time :  3844.8 secs   av.it.:  16.6
      thresh= 3.368E-08 alpha_mix =  0.300 |ddv_scf|^2 =  2.957E-15

     End of self-consistent calculation

     Convergence has been achieved 


     Representation #  19 mode #  19

     Self-consistent Calculation

      iter #   1 total cpu time :  3876.0 secs   av.it.:   6.8
      thresh= 1.000E-02 alpha_mix =  0.300 |ddv_scf|^2 =  2.631E-08

      iter #   2 total cpu time :  3893.8 secs   av.it.:  15.2
      thresh= 1.622E-05 alpha_mix =  0.300 |ddv_scf|^2 =  5.118E-09

      iter #   3 total cpu time :  3913.5 secs   av.it.:  15.9
      thresh= 7.154E-06 alpha_mix =  0.300 |ddv_scf|^2 =  1.807E-10

      iter #   4 total cpu time :  3933.0 secs   av.it.:  16.5
      thresh= 1.344E-06 alpha_mix =  0.300 |ddv_scf|^2 =  3.739E-12

      iter #   5 total cpu time :  3952.8 secs   av.it.:  15.8
      thresh= 1.934E-07 alpha_mix =  0.300 |ddv_scf|^2 =  7.915E-13

      iter #   6 total cpu time :  3970.0 secs   av.it.:  16.1
      thresh= 8.897E-08 alpha_mix =  0.300 |ddv_scf|^2 =  7.615E-14

      iter #   7 total cpu time :  3986.8 secs   av.it.:  16.2
      thresh= 2.760E-08 alpha_mix =  0.300 |ddv_scf|^2 =  2.120E-15

     End of self-consistent calculation

     Convergence has been achieved 


     Representation #  20 mode #  20

     Self-consistent Calculation

      iter #   1 total cpu time :  4017.5 secs   av.it.:   7.3
      thresh= 1.000E-02 alpha_mix =  0.300 |ddv_scf|^2 =  4.739E-08

      iter #   2 total cpu time :  4038.0 secs   av.it.:  15.5
      thresh= 2.177E-05 alpha_mix =  0.300 |ddv_scf|^2 =  8.915E-09

      iter #   3 total cpu time :  4056.7 secs   av.it.:  16.3
      thresh= 9.442E-06 alpha_mix =  0.300 |ddv_scf|^2 =  2.049E-10

      iter #   4 total cpu time :  4075.7 secs   av.it.:  17.0
      thresh= 1.432E-06 alpha_mix =  0.300 |ddv_scf|^2 =  4.830E-12

      iter #   5 total cpu time :  4097.2 secs   av.it.:  16.2
      thresh= 2.198E-07 alpha_mix =  0.300 |ddv_scf|^2 =  9.078E-13

      iter #   6 total cpu time :  4118.2 secs   av.it.:  16.3
      thresh= 9.528E-08 alpha_mix =  0.300 |ddv_scf|^2 =  1.135E-13

      iter #   7 total cpu time :  4137.0 secs   av.it.:  16.5
      thresh= 3.368E-08 alpha_mix =  0.300 |ddv_scf|^2 =  2.957E-15

     End of self-consistent calculation

     Convergence has been achieved 


     Representation #  21 mode #  21

     Self-consistent Calculation

      iter #   1 total cpu time :  4167.8 secs   av.it.:   6.6
      thresh= 1.000E-02 alpha_mix =  0.300 |ddv_scf|^2 =  6.825E-09

      iter #   2 total cpu time :  4187.5 secs   av.it.:  15.7
      thresh= 8.261E-06 alpha_mix =  0.300 |ddv_scf|^2 =  1.808E-09

      iter #   3 total cpu time :  4206.2 secs   av.it.:  16.3
      thresh= 4.252E-06 alpha_mix =  0.300 |ddv_scf|^2 =  1.385E-10

      iter #   4 total cpu time :  4227.1 secs   av.it.:  16.7
      thresh= 1.177E-06 alpha_mix =  0.300 |ddv_scf|^2 =  2.539E-12

      iter #   5 total cpu time :  4248.6 secs   av.it.:  16.3
      thresh= 1.593E-07 alpha_mix =  0.300 |ddv_scf|^2 =  5.255E-13

      iter #   6 total cpu time :  4269.7 secs   av.it.:  16.7
      thresh= 7.249E-08 alpha_mix =  0.300 |ddv_scf|^2 =  2.973E-14

      iter #   7 total cpu time :  4291.4 secs   av.it.:  16.6
      thresh= 1.724E-08 alpha_mix =  0.300 |ddv_scf|^2 =  1.404E-15

     End of self-consistent calculation

     Convergence has been achieved 


     Representation #  22 mode #  22

     Self-consistent Calculation

      iter #   1 total cpu time :  4319.6 secs   av.it.:  10.4
      thresh= 1.000E-02 alpha_mix =  0.300 |ddv_scf|^2 =  1.756E-06

      iter #   2 total cpu time :  4338.5 secs   av.it.:  15.2
      thresh= 1.325E-04 alpha_mix =  0.300 |ddv_scf|^2 =  2.748E-07

      iter #   3 total cpu time :  4360.1 secs   av.it.:  15.8
      thresh= 5.242E-05 alpha_mix =  0.300 |ddv_scf|^2 =  7.916E-10

      iter #   4 total cpu time :  4382.6 secs   av.it.:  16.5
      thresh= 2.813E-06 alpha_mix =  0.300 |ddv_scf|^2 =  3.809E-11

      iter #   5 total cpu time :  4401.9 secs   av.it.:  16.3
      thresh= 6.172E-07 alpha_mix =  0.300 |ddv_scf|^2 =  3.900E-12

      iter #   6 total cpu time :  4422.6 secs   av.it.:  16.1
      thresh= 1.975E-07 alpha_mix =  0.300 |ddv_scf|^2 =  3.047E-13

      iter #   7 total cpu time :  4443.9 secs   av.it.:  16.6
      thresh= 5.520E-08 alpha_mix =  0.300 |ddv_scf|^2 =  4.309E-15

     End of self-consistent calculation

     Convergence has been achieved 


     Representation #  23 mode #  23

     Self-consistent Calculation

      iter #   1 total cpu time :  4476.8 secs   av.it.:   7.2
      thresh= 1.000E-02 alpha_mix =  0.300 |ddv_scf|^2 =  2.870E-08

      iter #   2 total cpu time :  4496.7 secs   av.it.:  15.6
      thresh= 1.694E-05 alpha_mix =  0.300 |ddv_scf|^2 =  5.970E-09

      iter #   3 total cpu time :  4515.8 secs   av.it.:  16.3
      thresh= 7.726E-06 alpha_mix =  0.300 |ddv_scf|^2 =  2.616E-10

      iter #   4 total cpu time :  4536.2 secs   av.it.:  16.9
      thresh= 1.618E-06 alpha_mix =  0.300 |ddv_scf|^2 =  4.189E-12

      iter #   5 total cpu time :  4555.5 secs   av.it.:  16.0
      thresh= 2.047E-07 alpha_mix =  0.300 |ddv_scf|^2 =  8.572E-13

      iter #   6 total cpu time :  4573.6 secs   av.it.:  16.5
      thresh= 9.259E-08 alpha_mix =  0.300 |ddv_scf|^2 =  7.377E-14

      iter #   7 total cpu time :  4594.3 secs   av.it.:  16.5
      thresh= 2.716E-08 alpha_mix =  0.300 |ddv_scf|^2 =  2.589E-15

     End of self-consistent calculation

     Convergence has been achieved 


     Representation #  24 mode #  24

     Self-consistent Calculation

      iter #   1 total cpu time :  4624.3 secs   av.it.:   7.0
      thresh= 1.000E-02 alpha_mix =  0.300 |ddv_scf|^2 =  4.704E-08

      iter #   2 total cpu time :  4642.8 secs   av.it.:  15.4
      thresh= 2.169E-05 alpha_mix =  0.300 |ddv_scf|^2 =  3.770E-09

      iter #   3 total cpu time :  4663.9 secs   av.it.:  15.8
      thresh= 6.140E-06 alpha_mix =  0.300 |ddv_scf|^2 =  3.637E-10

      iter #   4 total cpu time :  4684.9 secs   av.it.:  16.6
      thresh= 1.907E-06 alpha_mix =  0.300 |ddv_scf|^2 =  1.886E-11

      iter #   5 total cpu time :  4705.1 secs   av.it.:  16.6
      thresh= 4.343E-07 alpha_mix =  0.300 |ddv_scf|^2 =  7.726E-13

      iter #   6 total cpu time :  4726.7 secs   av.it.:  16.0
      thresh= 8.790E-08 alpha_mix =  0.300 |ddv_scf|^2 =  1.528E-13

      iter #   7 total cpu time :  4743.4 secs   av.it.:  16.6
      thresh= 3.909E-08 alpha_mix =  0.300 |ddv_scf|^2 =  9.932E-15

     End of self-consistent calculation

     Convergence has been achieved 


     Representation #  25 mode #  25

     Self-consistent Calculation

      iter #   1 total cpu time :  4770.1 secs   av.it.:   6.9
      thresh= 1.000E-02 alpha_mix =  0.300 |ddv_scf|^2 =  2.310E-08

      iter #   2 total cpu time :  4787.5 secs   av.it.:  15.7
      thresh= 1.520E-05 alpha_mix =  0.300 |ddv_scf|^2 =  3.738E-09

      iter #   3 total cpu time :  4806.9 secs   av.it.:  16.1
      thresh= 6.114E-06 alpha_mix =  0.300 |ddv_scf|^2 =  4.064E-10

      iter #   4 total cpu time :  4828.0 secs   av.it.:  16.6
      thresh= 2.016E-06 alpha_mix =  0.300 |ddv_scf|^2 =  2.247E-11

      iter #   5 total cpu time :  4848.0 secs   av.it.:  16.7
      thresh= 4.741E-07 alpha_mix =  0.300 |ddv_scf|^2 =  7.637E-13

      iter #   6 total cpu time :  4868.3 secs   av.it.:  16.0
      thresh= 8.739E-08 alpha_mix =  0.300 |ddv_scf|^2 =  1.722E-13

      iter #   7 total cpu time :  4888.5 secs   av.it.:  16.6
      thresh= 4.150E-08 alpha_mix =  0.300 |ddv_scf|^2 =  8.860E-15

     End of self-consistent calculation

     Convergence has been achieved 


     Representation #  26 mode #  26

     Self-consistent Calculation

      iter #   1 total cpu time :  4918.5 secs   av.it.:   7.2
      thresh= 1.000E-02 alpha_mix =  0.300 |ddv_scf|^2 =  9.607E-08

      iter #   2 total cpu time :  4936.3 secs   av.it.:  15.2
      thresh= 3.099E-05 alpha_mix =  0.300 |ddv_scf|^2 =  7.304E-09

      iter #   3 total cpu time :  4957.3 secs   av.it.:  15.8
      thresh= 8.546E-06 alpha_mix =  0.300 |ddv_scf|^2 =  4.050E-10

      iter #   4 total cpu time :  4978.5 secs   av.it.:  16.4
      thresh= 2.012E-06 alpha_mix =  0.300 |ddv_scf|^2 =  3.332E-11

      iter #   5 total cpu time :  4997.5 secs   av.it.:  16.6
      thresh= 5.772E-07 alpha_mix =  0.300 |ddv_scf|^2 =  8.404E-13

      iter #   6 total cpu time :  5020.6 secs   av.it.:  15.8
      thresh= 9.167E-08 alpha_mix =  0.300 |ddv_scf|^2 =  2.164E-13

      iter #   7 total cpu time :  5040.8 secs   av.it.:  16.6
      thresh= 4.652E-08 alpha_mix =  0.300 |ddv_scf|^2 =  9.802E-15

     End of self-consistent calculation

     Convergence has been achieved 


     Representation #  27 mode #  27

     Self-consistent Calculation

      iter #   1 total cpu time :  5070.0 secs   av.it.:   7.1
      thresh= 1.000E-02 alpha_mix =  0.300 |ddv_scf|^2 =  8.241E-08

      iter #   2 total cpu time :  5090.0 secs   av.it.:  15.3
      thresh= 2.871E-05 alpha_mix =  0.300 |ddv_scf|^2 =  4.748E-09

      iter #   3 total cpu time :  5110.9 secs   av.it.:  15.7
      thresh= 6.891E-06 alpha_mix =  0.300 |ddv_scf|^2 =  2.410E-10

      iter #   4 total cpu time :  5131.5 secs   av.it.:  16.7
      thresh= 1.552E-06 alpha_mix =  0.300 |ddv_scf|^2 =  1.391E-11

      iter #   5 total cpu time :  5154.3 secs   av.it.:  16.5
      thresh= 3.729E-07 alpha_mix =  0.300 |ddv_scf|^2 =  7.102E-13

      iter #   6 total cpu time :  5176.0 secs   av.it.:  16.2
      thresh= 8.428E-08 alpha_mix =  0.300 |ddv_scf|^2 =  1.343E-13

      iter #   7 total cpu time :  5197.6 secs   av.it.:  16.8
      thresh= 3.665E-08 alpha_mix =  0.300 |ddv_scf|^2 =  5.315E-15

     End of self-consistent calculation

     Convergence has been achieved 


     Representation #  28 mode #  28

     Self-consistent Calculation

      iter #   1 total cpu time :  5230.5 secs   av.it.:   7.1
      thresh= 1.000E-02 alpha_mix =  0.300 |ddv_scf|^2 =  6.579E-08

      iter #   2 total cpu time :  5247.0 secs   av.it.:  15.3
      thresh= 2.565E-05 alpha_mix =  0.300 |ddv_scf|^2 =  5.552E-09

      iter #   3 total cpu time :  5264.8 secs   av.it.:  15.9
      thresh= 7.451E-06 alpha_mix =  0.300 |ddv_scf|^2 =  5.037E-10

      iter #   4 total cpu time :  5283.7 secs   av.it.:  16.7
      thresh= 2.244E-06 alpha_mix =  0.300 |ddv_scf|^2 =  2.028E-11

      iter #   5 total cpu time :  5302.4 secs   av.it.:  16.7
      thresh= 4.503E-07 alpha_mix =  0.300 |ddv_scf|^2 =  8.956E-13

      iter #   6 total cpu time :  5322.3 secs   av.it.:  15.9
      thresh= 9.464E-08 alpha_mix =  0.300 |ddv_scf|^2 =  1.886E-13

      iter #   7 total cpu time :  5340.9 secs   av.it.:  16.5
      thresh= 4.343E-08 alpha_mix =  0.300 |ddv_scf|^2 =  1.034E-14

      iter #   8 total cpu time :  5360.6 secs   av.it.:  16.5
      thresh= 1.017E-08 alpha_mix =  0.300 |ddv_scf|^2 =  1.532E-15

     End of self-consistent calculation

     Convergence has been achieved 


     Representation #  29 mode #  29

     Self-consistent Calculation

      iter #   1 total cpu time :  5387.8 secs   av.it.:   6.9
      thresh= 1.000E-02 alpha_mix =  0.300 |ddv_scf|^2 =  5.298E-08

      iter #   2 total cpu time :  5406.9 secs   av.it.:  15.5
      thresh= 2.302E-05 alpha_mix =  0.300 |ddv_scf|^2 =  4.494E-09

      iter #   3 total cpu time :  5426.2 secs   av.it.:  16.0
      thresh= 6.703E-06 alpha_mix =  0.300 |ddv_scf|^2 =  2.617E-10

      iter #   4 total cpu time :  5445.3 secs   av.it.:  16.5
      thresh= 1.618E-06 alpha_mix =  0.300 |ddv_scf|^2 =  2.354E-11

      iter #   5 total cpu time :  5464.7 secs   av.it.:  16.7
      thresh= 4.852E-07 alpha_mix =  0.300 |ddv_scf|^2 =  7.718E-13

      iter #   6 total cpu time :  5483.2 secs   av.it.:  16.0
      thresh= 8.785E-08 alpha_mix =  0.300 |ddv_scf|^2 =  1.497E-13

      iter #   7 total cpu time :  5503.1 secs   av.it.:  16.6
      thresh= 3.869E-08 alpha_mix =  0.300 |ddv_scf|^2 =  4.843E-15

     End of self-consistent calculation

     Convergence has been achieved 


     Representation #  30 mode #  30

     Self-consistent Calculation

      iter #   1 total cpu time :  5533.7 secs   av.it.:  10.6
      thresh= 1.000E-02 alpha_mix =  0.300 |ddv_scf|^2 =  4.188E-06

      iter #   2 total cpu time :  5549.9 secs   av.it.:  15.2
      thresh= 2.046E-04 alpha_mix =  0.300 |ddv_scf|^2 =  2.716E-07

      iter #   3 total cpu time :  5567.9 secs   av.it.:  15.7
      thresh= 5.212E-05 alpha_mix =  0.300 |ddv_scf|^2 =  8.813E-09

      iter #   4 total cpu time :  5587.2 secs   av.it.:  16.3
      thresh= 9.388E-06 alpha_mix =  0.300 |ddv_scf|^2 =  2.456E-10

      iter #   5 total cpu time :  5608.6 secs   av.it.:  16.6
      thresh= 1.567E-06 alpha_mix =  0.300 |ddv_scf|^2 =  1.830E-11

      iter #   6 total cpu time :  5628.1 secs   av.it.:  16.3
      thresh= 4.278E-07 alpha_mix =  0.300 |ddv_scf|^2 =  2.754E-12

      iter #   7 total cpu time :  5647.3 secs   av.it.:  16.5
      thresh= 1.659E-07 alpha_mix =  0.300 |ddv_scf|^2 =  7.991E-14

      iter #   8 total cpu time :  5670.6 secs   av.it.:  15.9
      thresh= 2.827E-08 alpha_mix =  0.300 |ddv_scf|^2 =  2.313E-14

      iter #   9 total cpu time :  5690.2 secs   av.it.:  16.8
      thresh= 1.521E-08 alpha_mix =  0.300 |ddv_scf|^2 =  2.676E-16

     End of self-consistent calculation

     Convergence has been achieved 


     Representation #  31 mode #  31

     Self-consistent Calculation

      iter #   1 total cpu time :  5723.2 secs   av.it.:   7.3
      thresh= 1.000E-02 alpha_mix =  0.300 |ddv_scf|^2 =  9.354E-08

      iter #   2 total cpu time :  5739.4 secs   av.it.:  15.2
      thresh= 3.058E-05 alpha_mix =  0.300 |ddv_scf|^2 =  7.309E-09

      iter #   3 total cpu time :  5756.6 secs   av.it.:  15.8
      thresh= 8.549E-06 alpha_mix =  0.300 |ddv_scf|^2 =  4.243E-10

      iter #   4 total cpu time :  5774.5 secs   av.it.:  16.4
      thresh= 2.060E-06 alpha_mix =  0.300 |ddv_scf|^2 =  3.349E-11

      iter #   5 total cpu time :  5795.3 secs   av.it.:  16.8
      thresh= 5.787E-07 alpha_mix =  0.300 |ddv_scf|^2 =  7.424E-13

      iter #   6 total cpu time :  5817.0 secs   av.it.:  15.3
      thresh= 8.616E-08 alpha_mix =  0.300 |ddv_scf|^2 =  2.411E-13

      iter #   7 total cpu time :  5836.4 secs   av.it.:  16.6
      thresh= 4.910E-08 alpha_mix =  0.300 |ddv_scf|^2 =  6.286E-15

     End of self-consistent calculation

     Convergence has been achieved 


     Representation #  32 mode #  32

     Self-consistent Calculation

      iter #   1 total cpu time :  5866.9 secs   av.it.:   6.8
      thresh= 1.000E-02 alpha_mix =  0.300 |ddv_scf|^2 =  1.618E-08

      iter #   2 total cpu time :  5888.2 secs   av.it.:  15.6
      thresh= 1.272E-05 alpha_mix =  0.300 |ddv_scf|^2 =  3.472E-09

      iter #   3 total cpu time :  5905.3 secs   av.it.:  16.2
      thresh= 5.893E-06 alpha_mix =  0.300 |ddv_scf|^2 =  2.074E-10

      iter #   4 total cpu time :  5924.1 secs   av.it.:  16.4
      thresh= 1.440E-06 alpha_mix =  0.300 |ddv_scf|^2 =  1.988E-11

      iter #   5 total cpu time :  5944.5 secs   av.it.:  16.5
      thresh= 4.459E-07 alpha_mix =  0.300 |ddv_scf|^2 =  1.162E-12

      iter #   6 total cpu time :  5964.3 secs   av.it.:  16.2
      thresh= 1.078E-07 alpha_mix =  0.300 |ddv_scf|^2 =  1.105E-13

      iter #   7 total cpu time :  5985.1 secs   av.it.:  16.4
      thresh= 3.324E-08 alpha_mix =  0.300 |ddv_scf|^2 =  8.461E-15

     End of self-consistent calculation

     Convergence has been achieved 


     Representation #  33 mode #  33

     Self-consistent Calculation

      iter #   1 total cpu time :  6011.9 secs   av.it.:   6.8
      thresh= 1.000E-02 alpha_mix =  0.300 |ddv_scf|^2 =  1.780E-08

      iter #   2 total cpu time :  6032.1 secs   av.it.:  15.7
      thresh= 1.334E-05 alpha_mix =  0.300 |ddv_scf|^2 =  3.483E-09

      iter #   3 total cpu time :  6051.0 secs   av.it.:  16.3
      thresh= 5.902E-06 alpha_mix =  0.300 |ddv_scf|^2 =  1.590E-10

      iter #   4 total cpu time :  6068.8 secs   av.it.:  16.4
      thresh= 1.261E-06 alpha_mix =  0.300 |ddv_scf|^2 =  2.248E-11

      iter #   5 total cpu time :  6089.5 secs   av.it.:  16.7
      thresh= 4.742E-07 alpha_mix =  0.300 |ddv_scf|^2 =  1.086E-12

      iter #   6 total cpu time :  6107.8 secs   av.it.:  16.0
      thresh= 1.042E-07 alpha_mix =  0.300 |ddv_scf|^2 =  2.041E-13

      iter #   7 total cpu time :  6128.3 secs   av.it.:  16.5
      thresh= 4.517E-08 alpha_mix =  0.300 |ddv_scf|^2 =  9.159E-15

     End of self-consistent calculation

     Convergence has been achieved 
 
     Number of q in the star =   12
     List of q in the star:
          1   0.000000000  -0.235702260   0.235702260
          2   0.000000000   0.235702260  -0.235702260
          3   0.000000000   0.235702260   0.235702260
          4   0.000000000  -0.235702260  -0.235702260
          5  -0.235702260   0.235702260   0.000000000
          6   0.235702260   0.235702260  -0.000000000
          7   0.235702260  -0.235702260   0.000000000
          8   0.235702260   0.000000000  -0.235702260
          9   0.235702260  -0.000000000   0.235702260
         10  -0.235702260  -0.000000000  -0.235702260
         11  -0.235702260  -0.000000000   0.235702260
         12  -0.235702260  -0.235702260  -0.000000000

     Diagonalizing the dynamical matrix

     q = (    0.000000000  -0.235702260   0.235702260 ) 

 **************************************************************************
     freq (    1) =       5.448277 [THz] =     181.734951 [cm-1]
     freq (    2) =       5.617641 [THz] =     187.384342 [cm-1]
     freq (    3) =       8.175072 [THz] =     272.691061 [cm-1]
     freq (    4) =      22.373062 [THz] =     746.285027 [cm-1]
     freq (    5) =      24.827076 [THz] =     828.142128 [cm-1]
     freq (    6) =      24.830397 [THz] =     828.252901 [cm-1]
     freq (    7) =      27.748180 [THz] =     925.579645 [cm-1]
     freq (    8) =      29.693119 [THz] =     990.455841 [cm-1]
     freq (    9) =      31.600298 [THz] =    1054.072471 [cm-1]
     freq (   10) =      36.365452 [THz] =    1213.020904 [cm-1]
     freq (   11) =      36.761726 [THz] =    1226.239184 [cm-1]
     freq (   12) =      37.975557 [THz] =    1266.728240 [cm-1]
     freq (   13) =      38.798361 [THz] =    1294.174034 [cm-1]
     freq (   14) =      39.945166 [THz] =    1332.427309 [cm-1]
     freq (   15) =      41.030103 [THz] =    1368.616923 [cm-1]
     freq (   16) =      41.697043 [THz] =    1390.863626 [cm-1]
     freq (   17) =      42.527857 [THz] =    1418.576616 [cm-1]
     freq (   18) =      42.767676 [THz] =    1426.576103 [cm-1]
     freq (   19) =      43.477891 [THz] =    1450.266332 [cm-1]
     freq (   20) =      44.025147 [THz] =    1468.520845 [cm-1]
     freq (   21) =      44.069618 [THz] =    1470.004228 [cm-1]
     freq (   22) =      45.117302 [THz] =    1504.951198 [cm-1]
     freq (   23) =      46.456642 [THz] =    1549.626783 [cm-1]
     freq (   24) =      49.999770 [THz] =    1667.812818 [cm-1]
     freq (   25) =      52.098151 [THz] =    1737.807260 [cm-1]
     freq (   26) =      52.249289 [THz] =    1742.848694 [cm-1]
     freq (   27) =      53.858962 [THz] =    1796.541599 [cm-1]
     freq (   28) =      54.246870 [THz] =    1809.480801 [cm-1]
     freq (   29) =      54.497498 [THz] =    1817.840877 [cm-1]
     freq (   30) =      54.509031 [THz] =    1818.225576 [cm-1]
     freq (   31) =      56.210300 [THz] =    1874.973771 [cm-1]
     freq (   32) =      59.961087 [THz] =    2000.086587 [cm-1]
     freq (   33) =      68.212357 [THz] =    2275.319327 [cm-1]
 **************************************************************************

     Mode symmetry, C_2v (mm2)  point group:

     freq (   1-   1) =        181.7  [cm-1]   --> B_2  D_4  S_4      
     freq (   2-   2) =        187.4  [cm-1]   --> B_1  D_3  S_3      
     freq (   3-   3) =        272.7  [cm-1]   --> A_1  D_1  S_1      
     freq (   4-   4) =        746.3  [cm-1]   --> B_2  D_4  S_4      
     freq (   5-   5) =        828.1  [cm-1]   --> A_1  D_1  S_1      
     freq (   6-   6) =        828.3  [cm-1]   --> A_2  D_2  S_2      
     freq (   7-   7) =        925.6  [cm-1]   --> B_2  D_4  S_4      
     freq (   8-   8) =        990.5  [cm-1]   --> B_1  D_3  S_3      
     freq (   9-   9) =       1054.1  [cm-1]   --> A_1  D_1  S_1      
     freq (  10-  10) =       1213.0  [cm-1]   --> B_1  D_3  S_3      
     freq (  11-  11) =       1226.2  [cm-1]   --> B_2  D_4  S_4      
     freq (  12-  12) =       1266.7  [cm-1]   --> A_2  D_2  S_2      
     freq (  13-  13) =       1294.2  [cm-1]   --> A_2  D_2  S_2      
     freq (  14-  14) =       1332.4  [cm-1]   --> B_2  D_4  S_4      
     freq (  15-  15) =       1368.6  [cm-1]   --> A_1  D_1  S_1      
     freq (  16-  16) =       1390.9  [cm-1]   --> A_1  D_1  S_1      
     freq (  17-  17) =       1418.6  [cm-1]   --> B_1  D_3  S_3      
     freq (  18-  18) =       1426.6  [cm-1]   --> B_2  D_4  S_4      
     freq (  19-  19) =       1450.3  [cm-1]   --> A_2  D_2  S_2      
     freq (  20-  20) =       1468.5  [cm-1]   --> A_2  D_2  S_2      
     freq (  21-  21) =       1470.0  [cm-1]   --> B_1  D_3  S_3      
     freq (  22-  22) =       1505.0  [cm-1]   --> B_2  D_4  S_4      
     freq (  23-  23) =       1549.6  [cm-1]   --> A_1  D_1  S_1      
     freq (  24-  24) =       1667.8  [cm-1]   --> A_1  D_1  S_1      
     freq (  25-  25) =       1737.8  [cm-1]   --> B_1  D_3  S_3      
     freq (  26-  26) =       1742.8  [cm-1]   --> B_2  D_4  S_4      
     freq (  27-  27) =       1796.5  [cm-1]   --> A_2  D_2  S_2      
     freq (  28-  28) =       1809.5  [cm-1]   --> A_1  D_1  S_1      
     freq (  29-  29) =       1817.8  [cm-1]   --> B_1  D_3  S_3      
     freq (  30-  30) =       1818.2  [cm-1]   --> B_2  D_4  S_4      
     freq (  31-  31) =       1875.0  [cm-1]   --> A_1  D_1  S_1      
     freq (  32-  32) =       2000.1  [cm-1]   --> B_2  D_4  S_4      
     freq (  33-  33) =       2275.3  [cm-1]   --> A_1  D_1  S_1      
     Electron-phonon interaction  ...

     Gaussian Broadening:   0.005 Ry, ngauss=   0
     DOS =  4.794684 states/spin/Ry/Unit Cell at Ef= 22.110855 eV
     lambda(    1)=  0.0035   gamma=    0.48 GHz
     lambda(    2)=  0.0198   gamma=    2.86 GHz
     lambda(    3)=  0.0649   gamma=   19.85 GHz
     lambda(    4)=  0.0106   gamma=   24.22 GHz
     lambda(    5)=  0.0775   gamma=  218.67 GHz
     lambda(    6)=  0.0608   gamma=  171.61 GHz
     lambda(    7)=  0.0069   gamma=   24.30 GHz
     lambda(    8)=  0.0130   gamma=   52.40 GHz
     lambda(    9)=  0.0834   gamma=  381.40 GHz
     lambda(   10)=  0.0349   gamma=  211.40 GHz
     lambda(   11)=  0.0116   gamma=   72.04 GHz
     lambda(   12)=  0.0089   gamma=   58.73 GHz
     lambda(   13)=  0.0046   gamma=   31.83 GHz
     lambda(   14)=  0.0028   gamma=   20.12 GHz
     lambda(   15)=  0.0575   gamma=  443.29 GHz
     lambda(   16)=  0.0311   gamma=  247.63 GHz
     lambda(   17)=  0.0393   gamma=  325.79 GHz
     lambda(   18)=  0.0075   gamma=   62.40 GHz
     lambda(   19)=  0.0185   gamma=  160.44 GHz
     lambda(   20)=  0.0303   gamma=  269.19 GHz
     lambda(   21)=  0.0498   gamma=  442.62 GHz
     lambda(   22)=  0.0084   gamma=   78.35 GHz
     lambda(   23)=  0.0326   gamma=  322.56 GHz
     lambda(   24)=  0.0132   gamma=  150.75 GHz
     lambda(   25)=  0.0202   gamma=  250.50 GHz
     lambda(   26)=  0.0094   gamma=  117.88 GHz
     lambda(   27)=  0.0263   gamma=  349.21 GHz
     lambda(   28)=  0.0372   gamma=  500.86 GHz
     lambda(   29)=  0.0462   gamma=  627.61 GHz
     lambda(   30)=  0.0033   gamma=   44.82 GHz
     lambda(   31)=  0.0264   gamma=  381.99 GHz
     lambda(   32)=  0.0018   gamma=   30.31 GHz
     lambda(   33)=  0.0195   gamma=  415.16 GHz
     Gaussian Broadening:   0.010 Ry, ngauss=   0
     DOS =  4.491154 states/spin/Ry/Unit Cell at Ef= 22.118081 eV
     lambda(    1)=  0.0080   gamma=    1.02 GHz
     lambda(    2)=  0.0153   gamma=    2.07 GHz
     lambda(    3)=  0.0442   gamma=   12.67 GHz
     lambda(    4)=  0.0554   gamma=  118.92 GHz
     lambda(    5)=  0.0458   gamma=  121.14 GHz
     lambda(    6)=  0.0266   gamma=   70.32 GHz
     lambda(    7)=  0.0065   gamma=   21.35 GHz
     lambda(    8)=  0.0091   gamma=   34.57 GHz
     lambda(    9)=  0.0400   gamma=  171.38 GHz
     lambda(   10)=  0.0261   gamma=  147.93 GHz
     lambda(   11)=  0.0122   gamma=   70.62 GHz
     lambda(   12)=  0.0088   gamma=   54.18 GHz
     lambda(   13)=  0.0043   gamma=   27.51 GHz
     lambda(   14)=  0.0113   gamma=   77.01 GHz
     lambda(   15)=  0.0396   gamma=  285.95 GHz
     lambda(   16)=  0.0230   gamma=  171.83 GHz
     lambda(   17)=  0.0279   gamma=  216.74 GHz
     lambda(   18)=  0.0080   gamma=   62.97 GHz
     lambda(   19)=  0.0137   gamma=  110.71 GHz
     lambda(   20)=  0.0230   gamma=  190.86 GHz
     lambda(   21)=  0.0321   gamma=  267.44 GHz
     lambda(   22)=  0.0110   gamma=   95.61 GHz
     lambda(   23)=  0.0255   gamma=  235.96 GHz
     lambda(   24)=  0.0138   gamma=  147.74 GHz
     lambda(   25)=  0.0146   gamma=  169.94 GHz
     lambda(   26)=  0.0078   gamma=   91.18 GHz
     lambda(   27)=  0.0121   gamma=  150.74 GHz
     lambda(   28)=  0.0226   gamma=  285.44 GHz
     lambda(   29)=  0.0309   gamma=  393.95 GHz
     lambda(   30)=  0.0073   gamma=   92.88 GHz
     lambda(   31)=  0.0233   gamma=  315.59 GHz
     lambda(   32)=  0.0053   gamma=   81.70 GHz
     lambda(   33)=  0.0220   gamma=  438.95 GHz
     Gaussian Broadening:   0.015 Ry, ngauss=   0
     DOS =  4.448291 states/spin/Ry/Unit Cell at Ef= 22.124358 eV
     lambda(    1)=  0.0113   gamma=    1.42 GHz
     lambda(    2)=  0.0124   gamma=    1.67 GHz
     lambda(    3)=  0.0419   gamma=   11.90 GHz
     lambda(    4)=  0.0884   gamma=  187.92 GHz
     lambda(    5)=  0.0357   gamma=   93.44 GHz
     lambda(    6)=  0.0231   gamma=   60.54 GHz
     lambda(    7)=  0.0062   gamma=   20.13 GHz
     lambda(    8)=  0.0084   gamma=   31.33 GHz
     lambda(    9)=  0.0318   gamma=  135.05 GHz
     lambda(   10)=  0.0242   gamma=  136.02 GHz
     lambda(   11)=  0.0124   gamma=   71.43 GHz
     lambda(   12)=  0.0082   gamma=   50.40 GHz
     lambda(   13)=  0.0051   gamma=   32.76 GHz
     lambda(   14)=  0.0155   gamma=  104.83 GHz
     lambda(   15)=  0.0337   gamma=  240.92 GHz
     lambda(   16)=  0.0209   gamma=  154.50 GHz
     lambda(   17)=  0.0248   gamma=  190.50 GHz
     lambda(   18)=  0.0095   gamma=   73.47 GHz
     lambda(   19)=  0.0130   gamma=  104.46 GHz
     lambda(   20)=  0.0204   gamma=  168.00 GHz
     lambda(   21)=  0.0273   gamma=  224.91 GHz
     lambda(   22)=  0.0120   gamma=  103.91 GHz
     lambda(   23)=  0.0212   gamma=  194.64 GHz
     lambda(   24)=  0.0143   gamma=  151.66 GHz
     lambda(   25)=  0.0127   gamma=  146.90 GHz
     lambda(   26)=  0.0072   gamma=   83.74 GHz
     lambda(   27)=  0.0106   gamma=  130.45 GHz
     lambda(   28)=  0.0198   gamma=  247.78 GHz
     lambda(   29)=  0.0237   gamma=  299.48 GHz
     lambda(   30)=  0.0102   gamma=  128.32 GHz
     lambda(   31)=  0.0193   gamma=  259.14 GHz
     lambda(   32)=  0.0084   gamma=  128.81 GHz
     lambda(   33)=  0.0224   gamma=  442.94 GHz
     Gaussian Broadening:   0.020 Ry, ngauss=   0
     DOS =  4.528357 states/spin/Ry/Unit Cell at Ef= 22.128042 eV
     lambda(    1)=  0.0120   gamma=    1.55 GHz
     lambda(    2)=  0.0113   gamma=    1.54 GHz
     lambda(    3)=  0.0409   gamma=   11.83 GHz
     lambda(    4)=  0.0962   gamma=  208.18 GHz
     lambda(    5)=  0.0314   gamma=   83.72 GHz
     lambda(    6)=  0.0232   gamma=   61.83 GHz
     lambda(    7)=  0.0060   gamma=   20.12 GHz
     lambda(    8)=  0.0079   gamma=   30.16 GHz
     lambda(    9)=  0.0299   gamma=  128.99 GHz
     lambda(   10)=  0.0231   gamma=  132.36 GHz
     lambda(   11)=  0.0128   gamma=   74.69 GHz
     lambda(   12)=  0.0083   gamma=   51.80 GHz
     lambda(   13)=  0.0063   gamma=   41.12 GHz
     lambda(   14)=  0.0161   gamma=  111.10 GHz
     lambda(   15)=  0.0308   gamma=  224.55 GHz
     lambda(   16)=  0.0199   gamma=  149.81 GHz
     lambda(   17)=  0.0228   gamma=  178.36 GHz
     lambda(   18)=  0.0099   gamma=   78.56 GHz
     lambda(   19)=  0.0133   gamma=  108.65 GHz
     lambda(   20)=  0.0196   gamma=  164.13 GHz
     lambda(   21)=  0.0255   gamma=  214.54 GHz
     lambda(   22)=  0.0128   gamma=  113.08 GHz
     lambda(   23)=  0.0187   gamma=  174.81 GHz
     lambda(   24)=  0.0140   gamma=  151.89 GHz
     lambda(   25)=  0.0124   gamma=  145.28 GHz
     lambda(   26)=  0.0072   gamma=   85.01 GHz
     lambda(   27)=  0.0107   gamma=  134.41 GHz
     lambda(   28)=  0.0185   gamma=  234.98 GHz
     lambda(   29)=  0.0203   gamma=  260.45 GHz
     lambda(   30)=  0.0113   gamma=  145.32 GHz
     lambda(   31)=  0.0164   gamma=  224.76 GHz
     lambda(   32)=  0.0092   gamma=  143.61 GHz
     lambda(   33)=  0.0205   gamma=  412.91 GHz
     Gaussian Broadening:   0.025 Ry, ngauss=   0
     DOS =  4.634996 states/spin/Ry/Unit Cell at Ef= 22.128678 eV
     lambda(    1)=  0.0124   gamma=    1.63 GHz
     lambda(    2)=  0.0112   gamma=    1.56 GHz
     lambda(    3)=  0.0401   gamma=   11.87 GHz
     lambda(    4)=  0.0976   gamma=  216.24 GHz
     lambda(    5)=  0.0298   gamma=   81.21 GHz
     lambda(    6)=  0.0237   gamma=   64.75 GHz
     lambda(    7)=  0.0061   gamma=   20.84 GHz
     lambda(    8)=  0.0077   gamma=   30.07 GHz
     lambda(    9)=  0.0295   gamma=  130.23 GHz
     lambda(   10)=  0.0225   gamma=  131.55 GHz
     lambda(   11)=  0.0136   gamma=   81.58 GHz
     lambda(   12)=  0.0086   gamma=   54.78 GHz
     lambda(   13)=  0.0078   gamma=   51.83 GHz
     lambda(   14)=  0.0164   gamma=  115.78 GHz
     lambda(   15)=  0.0299   gamma=  222.44 GHz
     lambda(   16)=  0.0199   gamma=  152.78 GHz
     lambda(   17)=  0.0216   gamma=  172.95 GHz
     lambda(   18)=  0.0102   gamma=   82.29 GHz
     lambda(   19)=  0.0136   gamma=  113.91 GHz
     lambda(   20)=  0.0196   gamma=  168.25 GHz
     lambda(   21)=  0.0250   gamma=  215.27 GHz
     lambda(   22)=  0.0136   gamma=  122.81 GHz
     lambda(   23)=  0.0179   gamma=  171.41 GHz
     lambda(   24)=  0.0141   gamma=  156.27 GHz
     lambda(   25)=  0.0125   gamma=  150.57 GHz
     lambda(   26)=  0.0074   gamma=   89.37 GHz
     lambda(   27)=  0.0113   gamma=  145.30 GHz
     lambda(   28)=  0.0178   gamma=  232.05 GHz
     lambda(   29)=  0.0188   gamma=  247.63 GHz
     lambda(   30)=  0.0120   gamma=  157.76 GHz
     lambda(   31)=  0.0149   gamma=  208.89 GHz
     lambda(   32)=  0.0093   gamma=  148.25 GHz
     lambda(   33)=  0.0189   gamma=  389.33 GHz
     Gaussian Broadening:   0.030 Ry, ngauss=   0
     DOS =  4.755068 states/spin/Ry/Unit Cell at Ef= 22.126761 eV
     lambda(    1)=  0.0127   gamma=    1.72 GHz
     lambda(    2)=  0.0116   gamma=    1.66 GHz
     lambda(    3)=  0.0394   gamma=   11.95 GHz
     lambda(    4)=  0.0972   gamma=  220.85 GHz
     lambda(    5)=  0.0290   gamma=   81.19 GHz
     lambda(    6)=  0.0242   gamma=   67.72 GHz
     lambda(    7)=  0.0064   gamma=   22.22 GHz
     lambda(    8)=  0.0077   gamma=   30.78 GHz
     lambda(    9)=  0.0290   gamma=  131.58 GHz
     lambda(   10)=  0.0221   gamma=  132.56 GHz
     lambda(   11)=  0.0149   gamma=   91.61 GHz
     lambda(   12)=  0.0090   gamma=   58.94 GHz
     lambda(   13)=  0.0094   gamma=   64.29 GHz
     lambda(   14)=  0.0167   gamma=  121.13 GHz
     lambda(   15)=  0.0297   gamma=  226.83 GHz
     lambda(   16)=  0.0202   gamma=  159.21 GHz
     lambda(   17)=  0.0208   gamma=  171.08 GHz
     lambda(   18)=  0.0104   gamma=   86.49 GHz
     lambda(   19)=  0.0138   gamma=  118.80 GHz
     lambda(   20)=  0.0200   gamma=  175.75 GHz
     lambda(   21)=  0.0250   gamma=  220.79 GHz
     lambda(   22)=  0.0142   gamma=  131.42 GHz
     lambda(   23)=  0.0179   gamma=  175.80 GHz
     lambda(   24)=  0.0145   gamma=  164.35 GHz
     lambda(   25)=  0.0129   gamma=  158.69 GHz
     lambda(   26)=  0.0077   gamma=   95.19 GHz
     lambda(   27)=  0.0122   gamma=  160.14 GHz
     lambda(   28)=  0.0174   gamma=  232.62 GHz
     lambda(   29)=  0.0183   gamma=  246.89 GHz
     lambda(   30)=  0.0125   gamma=  169.18 GHz
     lambda(   31)=  0.0141   gamma=  202.95 GHz
     lambda(   32)=  0.0092   gamma=  150.52 GHz
     lambda(   33)=  0.0178   gamma=  375.30 GHz
     Gaussian Broadening:   0.035 Ry, ngauss=   0
     DOS =  4.903732 states/spin/Ry/Unit Cell at Ef= 22.122264 eV
     lambda(    1)=  0.0132   gamma=    1.83 GHz
     lambda(    2)=  0.0122   gamma=    1.81 GHz
     lambda(    3)=  0.0385   gamma=   12.06 GHz
     lambda(    4)=  0.0957   gamma=  224.41 GHz
     lambda(    5)=  0.0285   gamma=   82.33 GHz
     lambda(    6)=  0.0245   gamma=   70.62 GHz
     lambda(    7)=  0.0067   gamma=   24.33 GHz
     lambda(    8)=  0.0078   gamma=   32.07 GHz
     lambda(    9)=  0.0284   gamma=  132.59 GHz
     lambda(   10)=  0.0218   gamma=  135.01 GHz
     lambda(   11)=  0.0163   gamma=  103.36 GHz
     lambda(   12)=  0.0096   gamma=   64.69 GHz
     lambda(   13)=  0.0109   gamma=   76.91 GHz
     lambda(   14)=  0.0170   gamma=  126.99 GHz
     lambda(   15)=  0.0298   gamma=  234.56 GHz
     lambda(   16)=  0.0205   gamma=  167.07 GHz
     lambda(   17)=  0.0203   gamma=  171.53 GHz
     lambda(   18)=  0.0107   gamma=   91.66 GHz
     lambda(   19)=  0.0140   gamma=  123.50 GHz
     lambda(   20)=  0.0204   gamma=  184.92 GHz
     lambda(   21)=  0.0251   gamma=  228.50 GHz
     lambda(   22)=  0.0146   gamma=  138.98 GHz
     lambda(   23)=  0.0182   gamma=  183.68 GHz
     lambda(   24)=  0.0149   gamma=  174.37 GHz
     lambda(   25)=  0.0132   gamma=  168.41 GHz
     lambda(   26)=  0.0080   gamma=  102.22 GHz
     lambda(   27)=  0.0130   gamma=  176.36 GHz
     lambda(   28)=  0.0171   gamma=  234.96 GHz
     lambda(   29)=  0.0181   gamma=  251.92 GHz
     lambda(   30)=  0.0130   gamma=  180.56 GHz
     lambda(   31)=  0.0136   gamma=  201.79 GHz
     lambda(   32)=  0.0091   gamma=  152.66 GHz
     lambda(   33)=  0.0168   gamma=  366.81 GHz
     Gaussian Broadening:   0.040 Ry, ngauss=   0
     DOS =  5.088867 states/spin/Ry/Unit Cell at Ef= 22.114955 eV
     lambda(    1)=  0.0137   gamma=    1.98 GHz
     lambda(    2)=  0.0130   gamma=    1.99 GHz
     lambda(    3)=  0.0376   gamma=   12.21 GHz
     lambda(    4)=  0.0936   gamma=  227.65 GHz
     lambda(    5)=  0.0281   gamma=   84.22 GHz
     lambda(    6)=  0.0245   gamma=   73.52 GHz
     lambda(    7)=  0.0072   gamma=   27.09 GHz
     lambda(    8)=  0.0079   gamma=   33.82 GHz
     lambda(    9)=  0.0276   gamma=  133.86 GHz
     lambda(   10)=  0.0216   gamma=  138.89 GHz
     lambda(   11)=  0.0176   gamma=  115.70 GHz
     lambda(   12)=  0.0102   gamma=   71.76 GHz
     lambda(   13)=  0.0121   gamma=   88.64 GHz
     lambda(   14)=  0.0172   gamma=  133.15 GHz
     lambda(   15)=  0.0299   gamma=  244.36 GHz
     lambda(   16)=  0.0208   gamma=  175.48 GHz
     lambda(   17)=  0.0198   gamma=  174.05 GHz
     lambda(   18)=  0.0110   gamma=   97.68 GHz
     lambda(   19)=  0.0140   gamma=  128.18 GHz
     lambda(   20)=  0.0207   gamma=  195.08 GHz
     lambda(   21)=  0.0252   gamma=  237.65 GHz
     lambda(   22)=  0.0148   gamma=  146.08 GHz
     lambda(   23)=  0.0184   gamma=  193.26 GHz
     lambda(   24)=  0.0153   gamma=  185.29 GHz
     lambda(   25)=  0.0136   gamma=  179.44 GHz
     lambda(   26)=  0.0083   gamma=  110.34 GHz
     lambda(   27)=  0.0136   gamma=  192.10 GHz
     lambda(   28)=  0.0167   gamma=  238.68 GHz
     lambda(   29)=  0.0181   gamma=  260.54 GHz
     lambda(   30)=  0.0133   gamma=  192.07 GHz
     lambda(   31)=  0.0132   gamma=  203.12 GHz
     lambda(   32)=  0.0089   gamma=  155.07 GHz
     lambda(   33)=  0.0160   gamma=  361.48 GHz
     Gaussian Broadening:   0.045 Ry, ngauss=   0
     DOS =  5.309480 states/spin/Ry/Unit Cell at Ef= 22.104685 eV
     lambda(    1)=  0.0143   gamma=    2.16 GHz
     lambda(    2)=  0.0138   gamma=    2.21 GHz
     lambda(    3)=  0.0365   gamma=   12.38 GHz
     lambda(    4)=  0.0909   gamma=  230.62 GHz
     lambda(    5)=  0.0278   gamma=   86.73 GHz
     lambda(    6)=  0.0245   gamma=   76.55 GHz
     lambda(    7)=  0.0078   gamma=   30.37 GHz
     lambda(    8)=  0.0081   gamma=   36.03 GHz
     lambda(    9)=  0.0268   gamma=  135.74 GHz
     lambda(   10)=  0.0215   gamma=  144.30 GHz
     lambda(   11)=  0.0187   gamma=  127.93 GHz
     lambda(   12)=  0.0109   gamma=   79.60 GHz
     lambda(   13)=  0.0130   gamma=   99.24 GHz
     lambda(   14)=  0.0172   gamma=  139.48 GHz
     lambda(   15)=  0.0299   gamma=  255.59 GHz
     lambda(   16)=  0.0209   gamma=  183.97 GHz
     lambda(   17)=  0.0195   gamma=  178.54 GHz
     lambda(   18)=  0.0112   gamma=  104.17 GHz
     lambda(   19)=  0.0139   gamma=  132.97 GHz
     lambda(   20)=  0.0210   gamma=  205.96 GHz
     lambda(   21)=  0.0252   gamma=  247.98 GHz
     lambda(   22)=  0.0148   gamma=  153.22 GHz
     lambda(   23)=  0.0186   gamma=  203.74 GHz
     lambda(   24)=  0.0155   gamma=  196.87 GHz
     lambda(   25)=  0.0139   gamma=  191.82 GHz
     lambda(   26)=  0.0086   gamma=  119.38 GHz
     lambda(   27)=  0.0140   gamma=  206.59 GHz
     lambda(   28)=  0.0163   gamma=  243.67 GHz
     lambda(   29)=  0.0181   gamma=  272.08 GHz
     lambda(   30)=  0.0135   gamma=  203.50 GHz
     lambda(   31)=  0.0129   gamma=  205.96 GHz
     lambda(   32)=  0.0086   gamma=  157.63 GHz
     lambda(   33)=  0.0152   gamma=  358.18 GHz
     Gaussian Broadening:   0.050 Ry, ngauss=   0
     DOS =  5.560451 states/spin/Ry/Unit Cell at Ef= 22.091444 eV
     lambda(    1)=  0.0149   gamma=    2.35 GHz
     lambda(    2)=  0.0148   gamma=    2.47 GHz
     lambda(    3)=  0.0354   gamma=   12.58 GHz
     lambda(    4)=  0.0877   gamma=  233.21 GHz
     lambda(    5)=  0.0274   gamma=   89.77 GHz
     lambda(    6)=  0.0244   gamma=   79.77 GHz
     lambda(    7)=  0.0083   gamma=   34.04 GHz
     lambda(    8)=  0.0083   gamma=   38.70 GHz
     lambda(    9)=  0.0261   gamma=  138.24 GHz
     lambda(   10)=  0.0215   gamma=  151.19 GHz
     lambda(   11)=  0.0195   gamma=  139.65 GHz
     lambda(   12)=  0.0115   gamma=   87.82 GHz
     lambda(   13)=  0.0136   gamma=  108.88 GHz
     lambda(   14)=  0.0172   gamma=  145.87 GHz
     lambda(   15)=  0.0300   gamma=  267.80 GHz
     lambda(   16)=  0.0208   gamma=  192.29 GHz
     lambda(   17)=  0.0192   gamma=  184.81 GHz
     lambda(   18)=  0.0114   gamma=  110.80 GHz
     lambda(   19)=  0.0137   gamma=  137.96 GHz
     lambda(   20)=  0.0211   gamma=  217.48 GHz
     lambda(   21)=  0.0251   gamma=  259.25 GHz
     lambda(   22)=  0.0149   gamma=  160.59 GHz
     lambda(   23)=  0.0187   gamma=  214.75 GHz
     lambda(   24)=  0.0158   gamma=  209.23 GHz
     lambda(   25)=  0.0143   gamma=  205.49 GHz
     lambda(   26)=  0.0089   gamma=  129.14 GHz
     lambda(   27)=  0.0143   gamma=  219.67 GHz
     lambda(   28)=  0.0160   gamma=  249.80 GHz
     lambda(   29)=  0.0181   gamma=  286.15 GHz
     lambda(   30)=  0.0136   gamma=  214.64 GHz
     lambda(   31)=  0.0125   gamma=  209.84 GHz
     lambda(   32)=  0.0084   gamma=  160.18 GHz
     lambda(   33)=  0.0144   gamma=  356.27 GHz
 
 
     Number of q in the star =   12
     List of q in the star:
          1   0.000000000  -0.235702260   0.235702260
          2   0.000000000   0.235702260  -0.235702260
          3   0.000000000   0.235702260   0.235702260
          4   0.000000000  -0.235702260  -0.235702260
          5  -0.235702260   0.235702260   0.000000000
          6   0.235702260   0.235702260  -0.000000000
          7   0.235702260  -0.235702260   0.000000000
          8   0.235702260   0.000000000  -0.235702260
          9   0.235702260  -0.000000000   0.235702260
         10  -0.235702260  -0.000000000  -0.235702260
         11  -0.235702260  -0.000000000   0.235702260
         12  -0.235702260  -0.235702260  -0.000000000
 
     init_run     :      0.42s CPU      0.75s WALL (       1 calls)
     electrons    :     17.67s CPU     22.05s WALL (       1 calls)

     Called by init_run:
     wfcinit      :      0.00s CPU      0.03s WALL (       1 calls)
     potinit      :      0.20s CPU      0.46s WALL (       1 calls)
     hinit0       :      0.10s CPU      0.11s WALL (       1 calls)

     Called by electrons:
     c_bands      :     17.65s CPU     22.03s WALL (       1 calls)
     v_of_rho     :      0.02s CPU      0.04s WALL (       2 calls)
     newd         :      0.04s CPU      0.15s WALL (       2 calls)
     PAW_pot      :      0.38s CPU      0.46s WALL (       2 calls)

     Called by c_bands:
     init_us_2    :      4.64s CPU      5.29s WALL (   51072 calls)
     cegterg      :      9.69s CPU     10.19s WALL (     311 calls)

     Called by *egterg:
     cdiaghg      :      2.97s CPU      3.09s WALL (    5174 calls)
     h_psi        :   1312.03s CPU   1721.21s WALL (  778795 calls)
     s_psi        :     34.04s CPU     37.02s WALL ( 1589737 calls)
     g_psi        :      0.03s CPU      0.03s WALL (    4918 calls)

     Called by h_psi:
     h_psi:calbec :     24.31s CPU     26.37s WALL (  778795 calls)
     vloc_psi     :   1263.86s CPU   1668.95s WALL (  778795 calls)
     add_vuspsi   :     17.64s CPU     19.21s WALL (  778795 calls)

     General routines
     calbec       :    101.66s CPU    106.49s WALL ( 1650281 calls)
     fft          :      2.12s CPU      2.72s WALL (    6195 calls)
     ffts         :     96.74s CPU    151.52s WALL (    5969 calls)
     fftw         :   1760.19s CPU   2489.63s WALL (14965006 calls)
     interpolate  :      1.11s CPU      1.56s WALL (     623 calls)
     davcio       :     16.29s CPU    892.98s WALL (  214210 calls)
 
     Parallel routines
 
     PHONON       :      1h 8m CPU      1h42m WALL

     INITIALIZATION: 
     phq_setup    :      0.03s CPU      0.05s WALL (       1 calls)
     phq_init     :     21.65s CPU     24.77s WALL (       1 calls)
 
     phq_init     :     21.65s CPU     24.77s WALL (       1 calls)
     set_drhoc    :      0.00s CPU      0.00s WALL (       3 calls)
     init_vloc    :      0.01s CPU      0.05s WALL (       2 calls)
     init_us_1    :      0.15s CPU      0.29s WALL (       2 calls)
     init_us_2    :      4.64s CPU      5.29s WALL (   51072 calls)
     newd         :      0.04s CPU      0.15s WALL (       2 calls)
     dvanqq       :      1.76s CPU      1.77s WALL (       1 calls)
     drho         :     15.09s CPU     17.36s WALL (       1 calls)
     drhous       :      7.09s CPU      8.16s WALL (       1 calls)
     nldyntot     :      0.47s CPU      0.47s WALL (       1 calls)
 
     DYNAMICAL MATRIX:
     dynmat0      :      1.66s CPU      1.99s WALL (       1 calls)
     dynmat_us    :      1.61s CPU      1.79s WALL (       1 calls)
     addusdynmat  :      0.00s CPU      0.00s WALL (       1 calls)
     d2ionq       :      0.04s CPU      0.04s WALL (       1 calls)
     dynmatcc     :      0.01s CPU      0.01s WALL (       1 calls)
     phqscf       :   4035.61s CPU   6086.46s WALL (       1 calls)
     dynmatrix    :      0.43s CPU      0.46s WALL (       1 calls)
 
     phqscf       :   4035.61s CPU   6086.46s WALL (       1 calls)
     solve_linter :   3981.00s CPU   6001.29s WALL (      33 calls)
     sth_kernel   :   3333.60s CPU   4749.35s WALL (     294 calls)
     h_prec       :    970.92s CPU    986.37s WALL (   37632 calls)
     apply_dpot_b :    411.71s CPU    636.96s WALL (   37632 calls)
     ortho        :     59.80s CPU     61.13s WALL (   37632 calls)
     cgsolve      :   1412.13s CPU   1830.25s WALL (   37632 calls)
     incdrhoscf   :    234.08s CPU    346.26s WALL (   37632 calls)
                                        0.00s GPU  (   37632 calls)
     addusddens   :     31.04s CPU     40.24s WALL (     327 calls)
     vpsifft      :     88.61s CPU    140.23s WALL (    4224 calls)
     dv_of_drho   :      2.59s CPU      2.94s WALL (     294 calls)
     mix_pot      :     61.63s CPU    184.40s WALL (     294 calls)
     drhodv       :     54.57s CPU     63.32s WALL (      33 calls)
     psymdvscf    :     44.92s CPU     45.39s WALL (     294 calls)
     newdq        :     25.15s CPU     25.33s WALL (     294 calls)
     adddvscf     :      4.49s CPU      4.89s WALL (   37632 calls)
     com_dvloc    :     96.10s CPU    150.50s WALL (    5346 calls)
                                        0.00s GPU  (    5346 calls)
     addcore      :      0.46s CPU      0.55s WALL (    1416 calls)
                                        0.00s GPU  (    1416 calls)
     drhodvus     :     25.60s CPU     62.73s WALL (      33 calls)
 
     dvqpsi_us    :    114.54s CPU    169.98s WALL (    4224 calls)
                                        0.00s GPU  (    4224 calls)
     dvqpsi_us_on :     12.46s CPU     12.66s WALL (    4224 calls)
 
     add_vuspsi   :     17.64s CPU     19.21s WALL (  778795 calls)
     addusdbec    :      2.29s CPU      2.46s WALL (   41856 calls)
 
     drhodvus     :     25.60s CPU     62.73s WALL (      33 calls)
 
      Electron-phonon coupling
     elphel       :    105.67s CPU    198.34s WALL (      33 calls)
     elphsum      :     27.23s CPU     28.58s WALL (       1 calls)
 
      General routines
     calbec       :    101.66s CPU    106.49s WALL ( 1650281 calls)
     fft          :      2.12s CPU      2.72s WALL (    6195 calls)
     ffts         :     96.74s CPU    151.52s WALL (    5969 calls)
     fftw         :   1760.19s CPU   2489.63s WALL (14965006 calls)
     davcio       :     16.29s CPU    892.98s WALL (  214210 calls)
     write_rec    :      0.46s CPU    234.39s WALL (     327 calls)
 
      Additional routines
     ch_psi       :   1396.16s CPU   1812.71s WALL (  773310 calls)
     last         :     64.53s CPU     70.13s WALL (  773310 calls)
     Hesh         :      2.21s CPU      2.46s WALL (  773310 calls)
     ch_psi_all_k :     58.72s CPU     63.81s WALL (  773310 calls)
                                        0.00s GPU  (  773310 calls)
     ch_psi_calbe :     19.38s CPU     20.96s WALL (  773310 calls)
                                        0.00s GPU  (  773310 calls)
     h_psi_bgrp   :   1313.62s CPU   1722.91s WALL (  778795 calls)
     h_psi        :   1312.03s CPU   1721.21s WALL (  778795 calls)
     h_psi:pot    :   1309.25s CPU   1718.12s WALL (  778795 calls)
     h_psi:calbec :     24.31s CPU     26.37s WALL (  778795 calls)
     s_psi_bgrp   :     39.29s CPU     42.66s WALL ( 1589737 calls)
     s_psi        :     34.04s CPU     37.02s WALL ( 1589737 calls)
 
 
     PHONON       :      1h 8m CPU      1h42m WALL

 
   This run was terminated on:  18:44: 5  22Oct2025            

=------------------------------------------------------------------------------=
   JOB DONE.
=------------------------------------------------------------------------------=
