
     Program PHONON v.7.4.1 starts on 22Oct2025 at 15:50:51 

     This program is part of the open-source Quantum ESPRESSO suite
     for quantum simulation of materials; please cite
         "P. Giannozzi et al., J. Phys.:Condens. Matter 21 395502 (2009);
         "P. Giannozzi et al., J. Phys.:Condens. Matter 29 465901 (2017);
         "P. Giannozzi et al., J. Chem. Phys. 152 154105 (2020);
          URL http://www.quantum-espresso.org", 
     in publications or presentations arising from this work. More details at
     http://www.quantum-espresso.org/quote

     Parallel version (MPI), running on    48 processors

     MPI processes distributed on     1 nodes
     180849 MiB available memory on the printing compute node when the environment starts
 
     Waiting for input...
     Reading input from standard input

     Reading xml data from directory:

     ./tmp/Ce1H10.save/
 
     K-points division:     npool     =       4
     R & G space division:  proc/nbgrp/npool/nimage =      12
     Subspace diagonalization in iterative solution of the eigenvalue problem:
     a serial algorithm will be used

     file Ce.paw.z_12.atompaw.wentzcovitch.v1.2.upf: wavefunction(s)  6S 0P 5D 0D 4F 0F renormalized
     file H.pbe-kjpaw_psl.1.0.0.UPF: wavefunction(s)  1S renormalized

     IMPORTANT: XC functional enforced from input :
     Exchange-correlation= PBE
                           (   1   4   3   4   0   0   0)
     Any further DFT definition will be discarded
     Please, verify this is what you really want

 
     Parallelization info
     --------------------
     sticks:   dense  smooth     PW     G-vecs:    dense   smooth      PW
     Min         226      76     22                 7730     1493     247
     Max         227      77     23                 7733     1495     249
     Sum        2713     913    271                92769    17933    2975
 
     Using Slab Decomposition
 
     Reading collected, re-writing distributed wavefunctions in ./tmp/


     Dynamical matrices for ( 6, 6, 6)  uniform grid of q-points
     (  16 q-points):
       N         xq(1)         xq(2)         xq(3) 
       1   0.000000000   0.000000000   0.000000000
       2   0.117851130   0.117851130  -0.117851130
       3   0.235702260   0.235702260  -0.235702260
       4  -0.353553391  -0.353553391   0.353553391
       5   0.235702260   0.000000000   0.000000000
       6   0.353553391   0.117851130  -0.117851130
       7  -0.235702260  -0.471404521   0.471404521
       8  -0.117851130  -0.353553391   0.353553391
       9   0.000000000  -0.235702260   0.235702260
      10   0.471404521   0.000000000   0.000000000
      11  -0.117851130  -0.589255651   0.589255651
      12  -0.000000000  -0.471404521   0.471404521
      13  -0.707106781   0.000000000   0.000000000
      14  -0.235702260  -0.471404521   0.707106781
      15  -0.117851130  -0.353553391   0.589255651
      16  -0.707106781   0.235702260   0.000000000

     Number and degeneracy of irreps per q-point
       N         xq(1)         xq(2)         xq(3)   N irreps
       1   0.000000000   0.000000000   0.000000000      13
        1   2   3   3   3   3   1   2   3   3   3   3   3
       2   0.117851130   0.117851130  -0.117851130      22
        1   1   1   1   1   1   1   1   1   1   1   2   2   2   2   2   2   2
   2   2   2   2
       3   0.235702260   0.235702260  -0.235702260      22
        1   1   1   1   1   1   1   1   1   1   1   2   2   2   2   2   2   2
   2   2   2   2
       4  -0.353553391  -0.353553391   0.353553391      22
        1   1   1   1   1   1   2   2   2   2   2   2   1   1   1   1   1   2
   2   2   2   2
       5   0.235702260   0.000000000   0.000000000      24
        1   1   1   1   1   1   1   1   1   1   1   1   1   1   1   2   2   2
   2   2   2   2   2   2
       6   0.353553391   0.117851130  -0.117851130      33
     No degeneracy
       7  -0.235702260  -0.471404521   0.471404521      33
     No degeneracy
       8  -0.117851130  -0.353553391   0.353553391      33
     No degeneracy
       9   0.000000000  -0.235702260   0.235702260      33
     No degeneracy
      10   0.471404521   0.000000000   0.000000000      24
        1   1   1   1   1   1   1   1   1   1   1   1   1   1   1   2   2   2
   2   2   2   2   2   2
      11  -0.117851130  -0.589255651   0.589255651      33
     No degeneracy
      12  -0.000000000  -0.471404521   0.471404521      33
     No degeneracy
      13  -0.707106781   0.000000000   0.000000000      24
        1   1   1   1   1   1   1   2   2   2   2   1   1   1   1   1   1   1
   1   2   2   2   2   2
      14  -0.235702260  -0.471404521   0.707106781      33
     No degeneracy
      15  -0.117851130  -0.353553391   0.589255651      33
     No degeneracy
      16  -0.707106781   0.235702260   0.000000000      33
     No degeneracy

     Saving dvscf to file. Distribute only q points, not irreducible representations.

     Calculation of q =    0.1178511   0.1178511  -0.1178511
 
     Parallelization info
     --------------------
     sticks:   dense  smooth     PW     G-vecs:    dense   smooth      PW
     Min         226      76     23                 7730     1493     260
     Max         227      77     24                 7733     1495     263
     Sum        2713     913    283                92769    17933    3143
 
     Using Slab Decomposition
 

     Title: 
     Electron-phonon coefficients for Ce1H10                                    


     bravais-lattice index     =            0
     lattice parameter (alat)  =       6.3833  a.u.
     unit-cell volume          =     183.9165 (a.u.)^3
     number of atoms/cell      =           11
     number of atomic types    =            2
     number of electrons       =        22.00
     number of Kohn-Sham states=           15
     kinetic-energy cutoff     =      80.0000  Ry
     charge density cutoff     =     960.0000  Ry
     Exchange-correlation= PBE
                           (   1   4   3   4   0   0   0)

     celldm(1)=   6.383300  celldm(2)=   0.000000  celldm(3)=   0.000000
     celldm(4)=   0.000000  celldm(5)=   0.000000  celldm(6)=   0.000000

     crystal axes: (cart. coord. in units of alat)
               a(1) = (   0.000000   0.707107   0.707107 )  
               a(2) = (   0.707107   0.000000   0.707107 )  
               a(3) = (   0.707107   0.707107   0.000000 )  

     reciprocal axes: (cart. coord. in units 2 pi/alat)
               b(1) = ( -0.707107  0.707107  0.707107 )  
               b(2) = (  0.707107 -0.707107  0.707107 )  
               b(3) = (  0.707107  0.707107 -0.707107 )  


     PseudoPot. # 1 for Ce read from file:
     /work/home/mayuan/workplace/1.typical_hydride/003.MH10/2.CeH10/250/Tc-666-paw/pp/Ce.paw.z_12.atompaw.wentzcovitch.v1.2.upf
     MD5 check sum: 2241420ff980c77e0c917a2dc8a7e08e
     Pseudo is Projector augmented-wave + core cor, Zval = 12.0
     Generated using ATOMPAW code
     Shape of augmentation charge: BESSEL
     Using radial grid of 1102 points,  8 beta functions with: 
                l(1) =   0
                l(2) =   0
                l(3) =   1
                l(4) =   1
                l(5) =   2
                l(6) =   2
                l(7) =   3
                l(8) =   3
     Q(r) pseudized with 0 coefficients 


     PseudoPot. # 2 for H  read from file:
     /work/home/mayuan/workplace/1.typical_hydride/003.MH10/2.CeH10/250/Tc-666-paw/pp/H.pbe-kjpaw_psl.1.0.0.UPF
     MD5 check sum: 3bb27c602ede137025941d095c9090b7
     Pseudo is Projector augmented-wave, Zval =  1.0
     Generated using 'atomic' code by A. Dal Corso  v.7.1
     Shape of augmentation charge: PSQ
     Using radial grid of  929 points,  2 beta functions with: 
                l(1) =   0
                l(2) =   0
     Q(r) pseudized with 0 coefficients 


     atomic species   valence    mass     pseudopotential
     Ce               12.00   140.11600     Ce( 1.00)
     H                 1.00     1.00794     H ( 1.00)

     48 Sym. Ops., with inversion, found



   Cartesian axes

     site n.     atom                  positions (alat units)
         1        Ce     tau(   1) = (   0.7071068   0.7071068   0.7071068  )
         2        H      tau(   2) = (   0.3535534   0.3535534   0.3535534  )
         3        H      tau(   3) = (   1.0606602   1.0606602   1.0606602  )
         4        H      tau(   4) = (   1.2411448   1.2411448   1.2411448  )
         5        H      tau(   5) = (   0.1730688   0.1730688   0.1730688  )
         6        H      tau(   6) = (   0.8801756   0.8801756   1.2411448  )
         7        H      tau(   7) = (   0.5340380   0.5340380   0.1730688  )
         8        H      tau(   8) = (   0.8801756   1.2411448   0.8801756  )
         9        H      tau(   9) = (   0.5340380   0.1730688   0.5340380  )
        10        H      tau(  10) = (   1.2411448   0.8801756   0.8801756  )
        11        H      tau(  11) = (   0.1730688   0.5340380   0.5340380  )

     number of k points=   728  Gaussian smearing, width (Ry)=  0.0200

     Number of k-points >= 100: set verbosity='high' to print them.

     Dense  grid:    92769 G-vectors     FFT dimensions: (  64,  64,  64)

     Smooth grid:    17933 G-vectors     FFT dimensions: (  40,  40,  40)

     Estimated max dynamical RAM per process >      31.85 MB

     Estimated total dynamical RAM >       1.49 GB

     The potential is recalculated from file :
     ./tmp/_ph0/Ce1H10.q_2/Ce1H10.save/charge-density

     Starting wfcs are   42 atomic wfcs
     Checking if some PAW data can be deallocated... 

     Band Structure Calculation
     Davidson diagonalization with overlap

     ethr =  4.55E-11,  avg # of iterations = 19.1

     total cpu time spent up to now is       14.4 secs

     End of band structure calculation

     Number of k-points >= 100: set verbosity='high' to print the bands.

     the Fermi energy is    22.0987 ev

     Writing config to output data dir ./tmp/_ph0/Ce1H10.q_2/Ce1H10.save/ :
     XML data file

Possibly too few bands at point    1   0.00000   0.00000   0.00000

Possibly too few bands at point  154   0.00000   0.00000   0.00000

     Electron-phonon coefficients for Ce1H10                                    

     bravais-lattice index     =            0
     lattice parameter (alat)  =       6.3833  a.u.
     unit-cell volume          =     183.9165 (a.u.)^3
     number of atoms/cell      =           11
     number of atomic types    =            2
     kinetic-energy cut-off    =      80.0000  Ry
     charge density cut-off    =     960.0000  Ry
     convergence threshold     =      1.0E-14
     beta                      =       0.3000
     number of iterations used =            4
     Exchange-correlation= PBE
                           (   1   4   3   4   0   0   0)


     celldm(1)=    6.38330  celldm(2)=    0.00000  celldm(3)=    0.00000
     celldm(4)=    0.00000  celldm(5)=    0.00000  celldm(6)=    0.00000

     crystal axes: (cart. coord. in units of alat)
               a(1) = (  0.0000  0.7071  0.7071 )  
               a(2) = (  0.7071  0.0000  0.7071 )  
               a(3) = (  0.7071  0.7071  0.0000 )  

     reciprocal axes: (cart. coord. in units 2 pi/alat)
               b(1) = ( -0.7071  0.7071  0.7071 )  
               b(2) = (  0.7071 -0.7071  0.7071 )  
               b(3) = (  0.7071  0.7071 -0.7071 )  


     Atoms inside the unit cell: 

     Cartesian axes

     site n.  atom      mass           positions (alat units)
        1  Ce    140.1160   tau(    1) = (    0.70711    0.70711    0.70711  )
        2  H       1.0079   tau(    2) = (    0.35355    0.35355    0.35355  )
        3  H       1.0079   tau(    3) = (    1.06066    1.06066    1.06066  )
        4  H       1.0079   tau(    4) = (    1.24114    1.24114    1.24114  )
        5  H       1.0079   tau(    5) = (    0.17307    0.17307    0.17307  )
        6  H       1.0079   tau(    6) = (    0.88018    0.88018    1.24114  )
        7  H       1.0079   tau(    7) = (    0.53404    0.53404    0.17307  )
        8  H       1.0079   tau(    8) = (    0.88018    1.24114    0.88018  )
        9  H       1.0079   tau(    9) = (    0.53404    0.17307    0.53404  )
       10  H       1.0079   tau(   10) = (    1.24114    0.88018    0.88018  )
       11  H       1.0079   tau(   11) = (    0.17307    0.53404    0.53404  )

     Computing dynamical matrix for 
                    q = (   0.1178511   0.1178511  -0.1178511 )
 
      6 Sym.Ops. (no q -> -q+G )


     G cutoff =  990.8365  (   7731 G-vectors)     FFT grid: ( 64, 64, 64)
     G cutoff =  330.2788  (   1495 G-vectors)  smooth grid: ( 40, 40, 40)

     number of k points=   728  Gaussian smearing, width (Ry)=  0.0200

     PseudoPot. # 1 for Ce read from file:
     /work/home/mayuan/workplace/1.typical_hydride/003.MH10/2.CeH10/250/Tc-666-paw/pp/Ce.paw.z_12.atompaw.wentzcovitch.v1.2.upf
     MD5 check sum: 2241420ff980c77e0c917a2dc8a7e08e
     Pseudo is Projector augmented-wave + core cor, Zval = 12.0
     Generated using ATOMPAW code
     Shape of augmentation charge: BESSEL
     Using radial grid of 1102 points,  8 beta functions with: 
                l(1) =   0
                l(2) =   0
                l(3) =   1
                l(4) =   1
                l(5) =   2
                l(6) =   2
                l(7) =   3
                l(8) =   3
     Q(r) pseudized with 0 coefficients 


     PseudoPot. # 2 for H  read from file:
     /work/home/mayuan/workplace/1.typical_hydride/003.MH10/2.CeH10/250/Tc-666-paw/pp/H.pbe-kjpaw_psl.1.0.0.UPF
     MD5 check sum: 3bb27c602ede137025941d095c9090b7
     Pseudo is Projector augmented-wave, Zval =  1.0
     Generated using 'atomic' code by A. Dal Corso  v.7.1
     Shape of augmentation charge: PSQ
     Using radial grid of  929 points,  2 beta functions with: 
                l(1) =   0
                l(2) =   0
     Q(r) pseudized with 0 coefficients 


     Mode symmetry, C_3v (3m)   point group:


     Atomic displacements:
     There are   22 irreducible representations

     Representation     1      1 modes -  To be done

     Representation     2      1 modes -  To be done

     Representation     3      1 modes -  To be done

     Representation     4      1 modes -  To be done

     Representation     5      1 modes -  To be done

     Representation     6      1 modes -  To be done

     Representation     7      1 modes -  To be done

     Representation     8      1 modes -  To be done

     Representation     9      1 modes -  To be done

     Representation    10      1 modes -  To be done

     Representation    11      1 modes -  To be done

     Representation    12      2 modes -  To be done

     Representation    13      2 modes -  To be done

     Representation    14      2 modes -  To be done

     Representation    15      2 modes -  To be done

     Representation    16      2 modes -  To be done

     Representation    17      2 modes -  To be done

     Representation    18      2 modes -  To be done

     Representation    19      2 modes -  To be done

     Representation    20      2 modes -  To be done

     Representation    21      2 modes -  To be done

     Representation    22      2 modes -  To be done


     Message from routine init_vloc:
     Interpolation table for Vloc re-allocated

     Alpha used in Ewald sum =   2.8000
     PHONON       :     26.62s CPU     37.25s WALL



     Representation #   1 mode #   1

     Self-consistent Calculation

      iter #   1 total cpu time :    46.6 secs   av.it.:   8.4
      thresh= 1.000E-02 alpha_mix =  0.300 |ddv_scf|^2 =  1.604E-03

      iter #   2 total cpu time :    60.7 secs   av.it.:  13.8
      thresh= 4.005E-03 alpha_mix =  0.300 |ddv_scf|^2 =  2.233E-01

      iter #   3 total cpu time :    74.8 secs   av.it.:  12.4
      thresh= 1.000E-02 alpha_mix =  0.300 |ddv_scf|^2 =  1.287E-06

      iter #   4 total cpu time :    92.0 secs   av.it.:  13.2
      thresh= 1.135E-04 alpha_mix =  0.300 |ddv_scf|^2 =  3.316E-09

      iter #   5 total cpu time :   106.4 secs   av.it.:  15.9
      thresh= 5.759E-06 alpha_mix =  0.300 |ddv_scf|^2 =  1.950E-08

      iter #   6 total cpu time :   121.4 secs   av.it.:  13.5
      thresh= 1.397E-05 alpha_mix =  0.300 |ddv_scf|^2 =  2.715E-08

      iter #   7 total cpu time :   135.4 secs   av.it.:  11.2
      thresh= 1.648E-05 alpha_mix =  0.300 |ddv_scf|^2 =  5.895E-10

      iter #   8 total cpu time :   150.3 secs   av.it.:  14.9
      thresh= 2.428E-06 alpha_mix =  0.300 |ddv_scf|^2 =  6.924E-10

      iter #   9 total cpu time :   163.4 secs   av.it.:  13.6
      thresh= 2.631E-06 alpha_mix =  0.300 |ddv_scf|^2 =  7.160E-12

      iter #  10 total cpu time :   180.2 secs   av.it.:  15.1
      thresh= 2.676E-07 alpha_mix =  0.300 |ddv_scf|^2 =  5.649E-13

      iter #  11 total cpu time :   194.3 secs   av.it.:  15.5
      thresh= 7.516E-08 alpha_mix =  0.300 |ddv_scf|^2 =  1.130E-12

      iter #  12 total cpu time :   207.7 secs   av.it.:  13.4
      thresh= 1.063E-07 alpha_mix =  0.300 |ddv_scf|^2 =  9.596E-14

      iter #  13 total cpu time :   223.1 secs   av.it.:  15.0
      thresh= 3.098E-08 alpha_mix =  0.300 |ddv_scf|^2 =  6.827E-15

     End of self-consistent calculation

     Convergence has been achieved 


     Representation #   2 mode #   2

     Self-consistent Calculation

      iter #   1 total cpu time :   247.5 secs   av.it.:   7.8
      thresh= 1.000E-02 alpha_mix =  0.300 |ddv_scf|^2 =  5.329E-04

      iter #   2 total cpu time :   263.0 secs   av.it.:  13.8
      thresh= 2.308E-03 alpha_mix =  0.300 |ddv_scf|^2 =  7.326E-02

      iter #   3 total cpu time :   278.3 secs   av.it.:  11.5
      thresh= 1.000E-02 alpha_mix =  0.300 |ddv_scf|^2 =  4.416E-06

      iter #   4 total cpu time :   292.9 secs   av.it.:  12.6
      thresh= 2.101E-04 alpha_mix =  0.300 |ddv_scf|^2 =  1.034E-06

      iter #   5 total cpu time :   307.8 secs   av.it.:  11.5
      thresh= 1.017E-04 alpha_mix =  0.300 |ddv_scf|^2 =  7.962E-09

      iter #   6 total cpu time :   322.5 secs   av.it.:  14.3
      thresh= 8.923E-06 alpha_mix =  0.300 |ddv_scf|^2 =  9.337E-08

      iter #   7 total cpu time :   338.5 secs   av.it.:  11.1
      thresh= 3.056E-05 alpha_mix =  0.300 |ddv_scf|^2 =  2.667E-10

      iter #   8 total cpu time :   352.5 secs   av.it.:  15.3
      thresh= 1.633E-06 alpha_mix =  0.300 |ddv_scf|^2 =  1.712E-10

      iter #   9 total cpu time :   364.8 secs   av.it.:  14.1
      thresh= 1.308E-06 alpha_mix =  0.300 |ddv_scf|^2 =  2.529E-12

      iter #  10 total cpu time :   379.3 secs   av.it.:  15.5
      thresh= 1.590E-07 alpha_mix =  0.300 |ddv_scf|^2 =  3.868E-13

      iter #  11 total cpu time :   393.4 secs   av.it.:  15.8
      thresh= 6.219E-08 alpha_mix =  0.300 |ddv_scf|^2 =  2.583E-14

      iter #  12 total cpu time :   409.0 secs   av.it.:  16.2
      thresh= 1.607E-08 alpha_mix =  0.300 |ddv_scf|^2 =  1.857E-12

      iter #  13 total cpu time :   422.4 secs   av.it.:  11.6
      thresh= 1.363E-07 alpha_mix =  0.300 |ddv_scf|^2 =  3.376E-14

      iter #  14 total cpu time :   436.2 secs   av.it.:  14.9
      thresh= 1.837E-08 alpha_mix =  0.300 |ddv_scf|^2 =  4.734E-14

      iter #  15 total cpu time :   450.4 secs   av.it.:  14.0
      thresh= 2.176E-08 alpha_mix =  0.300 |ddv_scf|^2 =  6.452E-14

      iter #  16 total cpu time :   465.1 secs   av.it.:  10.6
      thresh= 2.540E-08 alpha_mix =  0.300 |ddv_scf|^2 =  2.007E-14

      iter #  17 total cpu time :   479.7 secs   av.it.:  12.4
      thresh= 1.417E-08 alpha_mix =  0.300 |ddv_scf|^2 =  9.370E-16

     End of self-consistent calculation

     Convergence has been achieved 


     Representation #   3 mode #   3

     Self-consistent Calculation

      iter #   1 total cpu time :   495.6 secs   av.it.:  12.1
      thresh= 1.000E-02 alpha_mix =  0.300 |ddv_scf|^2 =  7.221E-02

      iter #   2 total cpu time :   508.0 secs   av.it.:  15.3
      thresh= 1.000E-02 alpha_mix =  0.300 |ddv_scf|^2 =  9.903E+00

      iter #   3 total cpu time :   520.6 secs   av.it.:  15.3
      thresh= 1.000E-02 alpha_mix =  0.300 |ddv_scf|^2 =  7.796E-04

      iter #   4 total cpu time :   533.0 secs   av.it.:  11.8
      thresh= 2.792E-03 alpha_mix =  0.300 |ddv_scf|^2 =  1.965E-04

      iter #   5 total cpu time :   546.1 secs   av.it.:  11.0
      thresh= 1.402E-03 alpha_mix =  0.300 |ddv_scf|^2 =  1.327E-07

      iter #   6 total cpu time :   560.1 secs   av.it.:  14.5
      thresh= 3.643E-05 alpha_mix =  0.300 |ddv_scf|^2 =  4.041E-08

      iter #   7 total cpu time :   573.0 secs   av.it.:  12.0
      thresh= 2.010E-05 alpha_mix =  0.300 |ddv_scf|^2 =  7.758E-08

      iter #   8 total cpu time :   586.9 secs   av.it.:  13.3
      thresh= 2.785E-05 alpha_mix =  0.300 |ddv_scf|^2 =  7.798E-09

      iter #   9 total cpu time :   599.4 secs   av.it.:  13.5
      thresh= 8.831E-06 alpha_mix =  0.300 |ddv_scf|^2 =  6.654E-10

      iter #  10 total cpu time :   611.1 secs   av.it.:  14.0
      thresh= 2.579E-06 alpha_mix =  0.300 |ddv_scf|^2 =  1.194E-11

      iter #  11 total cpu time :   623.2 secs   av.it.:  15.8
      thresh= 3.455E-07 alpha_mix =  0.300 |ddv_scf|^2 =  2.228E-13

      iter #  12 total cpu time :   636.0 secs   av.it.:  15.1
      thresh= 4.720E-08 alpha_mix =  0.300 |ddv_scf|^2 =  6.058E-13

      iter #  13 total cpu time :   648.6 secs   av.it.:  14.3
      thresh= 7.784E-08 alpha_mix =  0.300 |ddv_scf|^2 =  7.372E-13

      iter #  14 total cpu time :   662.6 secs   av.it.:  13.4
      thresh= 8.586E-08 alpha_mix =  0.300 |ddv_scf|^2 =  2.538E-14

      iter #  15 total cpu time :   676.0 secs   av.it.:  14.4
      thresh= 1.593E-08 alpha_mix =  0.300 |ddv_scf|^2 =  1.060E-14

      iter #  16 total cpu time :   689.8 secs   av.it.:  14.7
      thresh= 1.030E-08 alpha_mix =  0.300 |ddv_scf|^2 =  2.471E-14

      iter #  17 total cpu time :   701.0 secs   av.it.:  13.1
      thresh= 1.572E-08 alpha_mix =  0.300 |ddv_scf|^2 =  1.532E-16

     End of self-consistent calculation

     Convergence has been achieved 


     Representation #   4 mode #   4

     Self-consistent Calculation

      iter #   1 total cpu time :   716.0 secs   av.it.:   7.8
      thresh= 1.000E-02 alpha_mix =  0.300 |ddv_scf|^2 =  5.329E-04

      iter #   2 total cpu time :   729.5 secs   av.it.:  13.8
      thresh= 2.308E-03 alpha_mix =  0.300 |ddv_scf|^2 =  7.326E-02

      iter #   3 total cpu time :   742.1 secs   av.it.:  11.5
      thresh= 1.000E-02 alpha_mix =  0.300 |ddv_scf|^2 =  4.416E-06

      iter #   4 total cpu time :   755.3 secs   av.it.:  12.6
      thresh= 2.102E-04 alpha_mix =  0.300 |ddv_scf|^2 =  1.034E-06

      iter #   5 total cpu time :   769.9 secs   av.it.:  11.5
      thresh= 1.017E-04 alpha_mix =  0.300 |ddv_scf|^2 =  8.117E-09

      iter #   6 total cpu time :   786.3 secs   av.it.:  14.4
      thresh= 9.010E-06 alpha_mix =  0.300 |ddv_scf|^2 =  7.527E-08

      iter #   7 total cpu time :   801.3 secs   av.it.:  10.9
      thresh= 2.744E-05 alpha_mix =  0.300 |ddv_scf|^2 =  2.980E-10

      iter #   8 total cpu time :   814.6 secs   av.it.:  15.2
      thresh= 1.726E-06 alpha_mix =  0.300 |ddv_scf|^2 =  1.819E-10

      iter #   9 total cpu time :   827.5 secs   av.it.:  14.1
      thresh= 1.349E-06 alpha_mix =  0.300 |ddv_scf|^2 =  2.826E-12

      iter #  10 total cpu time :   839.3 secs   av.it.:  15.3
      thresh= 1.681E-07 alpha_mix =  0.300 |ddv_scf|^2 =  3.687E-13

      iter #  11 total cpu time :   853.1 secs   av.it.:  15.9
      thresh= 6.072E-08 alpha_mix =  0.300 |ddv_scf|^2 =  2.813E-14

      iter #  12 total cpu time :   867.4 secs   av.it.:  16.1
      thresh= 1.677E-08 alpha_mix =  0.300 |ddv_scf|^2 =  2.075E-12

      iter #  13 total cpu time :   882.2 secs   av.it.:  11.7
      thresh= 1.441E-07 alpha_mix =  0.300 |ddv_scf|^2 =  3.606E-14

      iter #  14 total cpu time :   895.0 secs   av.it.:  14.8
      thresh= 1.899E-08 alpha_mix =  0.300 |ddv_scf|^2 =  4.713E-14

      iter #  15 total cpu time :   908.0 secs   av.it.:  14.0
      thresh= 2.171E-08 alpha_mix =  0.300 |ddv_scf|^2 =  6.790E-14

      iter #  16 total cpu time :   924.6 secs   av.it.:  10.7
      thresh= 2.606E-08 alpha_mix =  0.300 |ddv_scf|^2 =  2.185E-14

      iter #  17 total cpu time :   937.5 secs   av.it.:  12.3
      thresh= 1.478E-08 alpha_mix =  0.300 |ddv_scf|^2 =  3.605E-16

     End of self-consistent calculation

     Convergence has been achieved 


     Representation #   5 mode #   5

     Self-consistent Calculation

      iter #   1 total cpu time :   953.2 secs   av.it.:   8.2
      thresh= 1.000E-02 alpha_mix =  0.300 |ddv_scf|^2 =  9.577E-04

      iter #   2 total cpu time :   964.2 secs   av.it.:  13.8
      thresh= 3.095E-03 alpha_mix =  0.300 |ddv_scf|^2 =  1.331E-01

      iter #   3 total cpu time :   977.9 secs   av.it.:  12.0
      thresh= 1.000E-02 alpha_mix =  0.300 |ddv_scf|^2 =  1.155E-06

      iter #   4 total cpu time :   989.8 secs   av.it.:  13.1
      thresh= 1.075E-04 alpha_mix =  0.300 |ddv_scf|^2 =  1.898E-08

      iter #   5 total cpu time :  1007.0 secs   av.it.:  15.2
      thresh= 1.378E-05 alpha_mix =  0.300 |ddv_scf|^2 =  7.797E-08

      iter #   6 total cpu time :  1021.3 secs   av.it.:  11.3
      thresh= 2.792E-05 alpha_mix =  0.300 |ddv_scf|^2 =  3.082E-08

      iter #   7 total cpu time :  1033.4 secs   av.it.:  11.8
      thresh= 1.756E-05 alpha_mix =  0.300 |ddv_scf|^2 =  3.629E-09

      iter #   8 total cpu time :  1045.7 secs   av.it.:  13.6
      thresh= 6.024E-06 alpha_mix =  0.300 |ddv_scf|^2 =  5.677E-10

      iter #   9 total cpu time :  1058.6 secs   av.it.:  13.4
      thresh= 2.383E-06 alpha_mix =  0.300 |ddv_scf|^2 =  3.050E-12

      iter #  10 total cpu time :  1071.0 secs   av.it.:  15.9
      thresh= 1.746E-07 alpha_mix =  0.300 |ddv_scf|^2 =  1.423E-12

      iter #  11 total cpu time :  1083.6 secs   av.it.:  14.4
      thresh= 1.193E-07 alpha_mix =  0.300 |ddv_scf|^2 =  4.730E-14

      iter #  12 total cpu time :  1098.8 secs   av.it.:  15.9
      thresh= 2.175E-08 alpha_mix =  0.300 |ddv_scf|^2 =  3.760E-13

      iter #  13 total cpu time :  1111.9 secs   av.it.:  13.7
      thresh= 6.132E-08 alpha_mix =  0.300 |ddv_scf|^2 =  2.325E-14

      iter #  14 total cpu time :  1125.5 secs   av.it.:  14.7
      thresh= 1.525E-08 alpha_mix =  0.300 |ddv_scf|^2 =  2.996E-15

     End of self-consistent calculation

     Convergence has been achieved 


     Representation #   6 mode #   6

     Self-consistent Calculation

      iter #   1 total cpu time :  1146.3 secs   av.it.:   7.8
      thresh= 1.000E-02 alpha_mix =  0.300 |ddv_scf|^2 =  5.349E-04

      iter #   2 total cpu time :  1159.7 secs   av.it.:  13.8
      thresh= 2.313E-03 alpha_mix =  0.300 |ddv_scf|^2 =  7.412E-02

      iter #   3 total cpu time :  1174.7 secs   av.it.:  11.5
      thresh= 1.000E-02 alpha_mix =  0.300 |ddv_scf|^2 =  1.375E-06

      iter #   4 total cpu time :  1189.3 secs   av.it.:  13.0
      thresh= 1.172E-04 alpha_mix =  0.300 |ddv_scf|^2 =  1.409E-07

      iter #   5 total cpu time :  1202.6 secs   av.it.:  12.9
      thresh= 3.754E-05 alpha_mix =  0.300 |ddv_scf|^2 =  2.835E-08

      iter #   6 total cpu time :  1215.4 secs   av.it.:  13.1
      thresh= 1.684E-05 alpha_mix =  0.300 |ddv_scf|^2 =  5.542E-08

      iter #   7 total cpu time :  1228.4 secs   av.it.:  11.0
      thresh= 2.354E-05 alpha_mix =  0.300 |ddv_scf|^2 =  5.910E-11

      iter #   8 total cpu time :  1242.2 secs   av.it.:  16.2
      thresh= 7.688E-07 alpha_mix =  0.300 |ddv_scf|^2 =  3.551E-10

      iter #   9 total cpu time :  1257.8 secs   av.it.:  13.5
      thresh= 1.884E-06 alpha_mix =  0.300 |ddv_scf|^2 =  2.889E-11

      iter #  10 total cpu time :  1269.7 secs   av.it.:  13.4
      thresh= 5.375E-07 alpha_mix =  0.300 |ddv_scf|^2 =  1.273E-12

      iter #  11 total cpu time :  1282.8 secs   av.it.:  14.9
      thresh= 1.128E-07 alpha_mix =  0.300 |ddv_scf|^2 =  6.262E-14

      iter #  12 total cpu time :  1296.3 secs   av.it.:  15.1
      thresh= 2.502E-08 alpha_mix =  0.300 |ddv_scf|^2 =  1.156E-13

      iter #  13 total cpu time :  1309.6 secs   av.it.:  14.5
      thresh= 3.399E-08 alpha_mix =  0.300 |ddv_scf|^2 =  1.904E-14

      iter #  14 total cpu time :  1322.6 secs   av.it.:  14.7
      thresh= 1.380E-08 alpha_mix =  0.300 |ddv_scf|^2 =  1.174E-14

      iter #  15 total cpu time :  1336.1 secs   av.it.:  14.7
      thresh= 1.084E-08 alpha_mix =  0.300 |ddv_scf|^2 =  5.941E-14

      iter #  16 total cpu time :  1349.5 secs   av.it.:  12.9
      thresh= 2.437E-08 alpha_mix =  0.300 |ddv_scf|^2 =  2.020E-16

     End of self-consistent calculation

     Convergence has been achieved 


     Representation #   7 mode #   7

     Self-consistent Calculation

      iter #   1 total cpu time :  1367.2 secs   av.it.:   7.7
      thresh= 1.000E-02 alpha_mix =  0.300 |ddv_scf|^2 =  1.086E-04

      iter #   2 total cpu time :  1379.6 secs   av.it.:  13.8
      thresh= 1.042E-03 alpha_mix =  0.300 |ddv_scf|^2 =  1.492E-02

      iter #   3 total cpu time :  1394.3 secs   av.it.:   9.8
      thresh= 1.000E-02 alpha_mix =  0.300 |ddv_scf|^2 =  8.955E-07

      iter #   4 total cpu time :  1408.0 secs   av.it.:  13.8
      thresh= 9.463E-05 alpha_mix =  0.300 |ddv_scf|^2 =  1.779E-07

      iter #   5 total cpu time :  1421.1 secs   av.it.:  13.0
      thresh= 4.218E-05 alpha_mix =  0.300 |ddv_scf|^2 =  1.403E-08

      iter #   6 total cpu time :  1438.1 secs   av.it.:  14.6
      thresh= 1.184E-05 alpha_mix =  0.300 |ddv_scf|^2 =  1.244E-07

      iter #   7 total cpu time :  1453.3 secs   av.it.:  10.7
      thresh= 3.527E-05 alpha_mix =  0.300 |ddv_scf|^2 =  5.918E-10

      iter #   8 total cpu time :  1468.9 secs   av.it.:  14.1
      thresh= 2.433E-06 alpha_mix =  0.300 |ddv_scf|^2 =  5.893E-10

      iter #   9 total cpu time :  1483.6 secs   av.it.:  13.3
      thresh= 2.428E-06 alpha_mix =  0.300 |ddv_scf|^2 =  5.497E-11

      iter #  10 total cpu time :  1499.7 secs   av.it.:  13.2
      thresh= 7.414E-07 alpha_mix =  0.300 |ddv_scf|^2 =  7.704E-12

      iter #  11 total cpu time :  1513.2 secs   av.it.:  12.9
      thresh= 2.776E-07 alpha_mix =  0.300 |ddv_scf|^2 =  8.371E-12

      iter #  12 total cpu time :  1526.6 secs   av.it.:  12.4
      thresh= 2.893E-07 alpha_mix =  0.300 |ddv_scf|^2 =  2.710E-14

      iter #  13 total cpu time :  1541.1 secs   av.it.:  15.9
      thresh= 1.646E-08 alpha_mix =  0.300 |ddv_scf|^2 =  2.011E-14

      iter #  14 total cpu time :  1553.9 secs   av.it.:  15.3
      thresh= 1.418E-08 alpha_mix =  0.300 |ddv_scf|^2 =  1.518E-15

     End of self-consistent calculation

     Convergence has been achieved 


     Representation #   8 mode #   8

     Self-consistent Calculation

      iter #   1 total cpu time :  1575.2 secs   av.it.:   7.8
      thresh= 1.000E-02 alpha_mix =  0.300 |ddv_scf|^2 =  5.349E-04

      iter #   2 total cpu time :  1590.8 secs   av.it.:  13.8
      thresh= 2.313E-03 alpha_mix =  0.300 |ddv_scf|^2 =  7.412E-02

      iter #   3 total cpu time :  1603.2 secs   av.it.:  11.5
      thresh= 1.000E-02 alpha_mix =  0.300 |ddv_scf|^2 =  1.375E-06

      iter #   4 total cpu time :  1615.7 secs   av.it.:  13.0
      thresh= 1.172E-04 alpha_mix =  0.300 |ddv_scf|^2 =  1.407E-07

      iter #   5 total cpu time :  1629.0 secs   av.it.:  12.9
      thresh= 3.751E-05 alpha_mix =  0.300 |ddv_scf|^2 =  2.862E-08

      iter #   6 total cpu time :  1644.0 secs   av.it.:  13.2
      thresh= 1.692E-05 alpha_mix =  0.300 |ddv_scf|^2 =  4.349E-08

      iter #   7 total cpu time :  1658.0 secs   av.it.:  10.9
      thresh= 2.085E-05 alpha_mix =  0.300 |ddv_scf|^2 =  6.825E-11

      iter #   8 total cpu time :  1672.9 secs   av.it.:  16.1
      thresh= 8.262E-07 alpha_mix =  0.300 |ddv_scf|^2 =  3.803E-10

      iter #   9 total cpu time :  1687.5 secs   av.it.:  13.5
      thresh= 1.950E-06 alpha_mix =  0.300 |ddv_scf|^2 =  2.950E-11

      iter #  10 total cpu time :  1701.1 secs   av.it.:  13.4
      thresh= 5.432E-07 alpha_mix =  0.300 |ddv_scf|^2 =  1.309E-12

      iter #  11 total cpu time :  1714.4 secs   av.it.:  14.9
      thresh= 1.144E-07 alpha_mix =  0.300 |ddv_scf|^2 =  5.644E-14

      iter #  12 total cpu time :  1729.4 secs   av.it.:  15.2
      thresh= 2.376E-08 alpha_mix =  0.300 |ddv_scf|^2 =  1.092E-13

      iter #  13 total cpu time :  1745.0 secs   av.it.:  14.4
      thresh= 3.305E-08 alpha_mix =  0.300 |ddv_scf|^2 =  1.975E-14

      iter #  14 total cpu time :  1758.6 secs   av.it.:  14.7
      thresh= 1.405E-08 alpha_mix =  0.300 |ddv_scf|^2 =  1.164E-14

      iter #  15 total cpu time :  1774.2 secs   av.it.:  14.6
      thresh= 1.079E-08 alpha_mix =  0.300 |ddv_scf|^2 =  4.574E-14

      iter #  16 total cpu time :  1787.9 secs   av.it.:  12.9
      thresh= 2.139E-08 alpha_mix =  0.300 |ddv_scf|^2 =  2.597E-16

     End of self-consistent calculation

     Convergence has been achieved 


     Representation #   9 mode #   9

     Self-consistent Calculation

      iter #   1 total cpu time :  1803.7 secs   av.it.:   8.1
      thresh= 1.000E-02 alpha_mix =  0.300 |ddv_scf|^2 =  7.550E-04

      iter #   2 total cpu time :  1815.5 secs   av.it.:  13.8
      thresh= 2.748E-03 alpha_mix =  0.300 |ddv_scf|^2 =  1.051E-01

      iter #   3 total cpu time :  1830.3 secs   av.it.:  11.8
      thresh= 1.000E-02 alpha_mix =  0.300 |ddv_scf|^2 =  6.509E-07

      iter #   4 total cpu time :  1845.3 secs   av.it.:  14.0
      thresh= 8.068E-05 alpha_mix =  0.300 |ddv_scf|^2 =  8.273E-09

      iter #   5 total cpu time :  1859.2 secs   av.it.:  15.3
      thresh= 9.096E-06 alpha_mix =  0.300 |ddv_scf|^2 =  5.313E-09

      iter #   6 total cpu time :  1873.9 secs   av.it.:  15.3
      thresh= 7.289E-06 alpha_mix =  0.300 |ddv_scf|^2 =  1.246E-07

      iter #   7 total cpu time :  1888.9 secs   av.it.:  10.6
      thresh= 3.530E-05 alpha_mix =  0.300 |ddv_scf|^2 =  1.565E-10

      iter #   8 total cpu time :  1903.9 secs   av.it.:  15.0
      thresh= 1.251E-06 alpha_mix =  0.300 |ddv_scf|^2 =  2.542E-10

      iter #   9 total cpu time :  1918.1 secs   av.it.:  14.2
      thresh= 1.594E-06 alpha_mix =  0.300 |ddv_scf|^2 =  9.252E-11

      iter #  10 total cpu time :  1931.1 secs   av.it.:  12.8
      thresh= 9.619E-07 alpha_mix =  0.300 |ddv_scf|^2 =  3.465E-11

      iter #  11 total cpu time :  1946.2 secs   av.it.:  13.2
      thresh= 5.887E-07 alpha_mix =  0.300 |ddv_scf|^2 =  5.928E-12

      iter #  12 total cpu time :  1959.6 secs   av.it.:  12.9
      thresh= 2.435E-07 alpha_mix =  0.300 |ddv_scf|^2 =  2.754E-14

      iter #  13 total cpu time :  1972.9 secs   av.it.:  15.6
      thresh= 1.659E-08 alpha_mix =  0.300 |ddv_scf|^2 =  4.735E-15

     End of self-consistent calculation

     Convergence has been achieved 


     Representation #  10 mode #  10

     Self-consistent Calculation

      iter #   1 total cpu time :  1991.0 secs   av.it.:   6.4
      thresh= 1.000E-02 alpha_mix =  0.300 |ddv_scf|^2 =  1.668E-09

      iter #   2 total cpu time :  2004.4 secs   av.it.:  15.2
      thresh= 4.084E-06 alpha_mix =  0.300 |ddv_scf|^2 =  7.538E-10

      iter #   3 total cpu time :  2020.0 secs   av.it.:  15.9
      thresh= 2.746E-06 alpha_mix =  0.300 |ddv_scf|^2 =  4.383E-12

      iter #   4 total cpu time :  2038.5 secs   av.it.:  15.7
      thresh= 2.094E-07 alpha_mix =  0.300 |ddv_scf|^2 =  1.362E-13

      iter #   5 total cpu time :  2053.8 secs   av.it.:  15.7
      thresh= 3.691E-08 alpha_mix =  0.300 |ddv_scf|^2 =  8.313E-15

     End of self-consistent calculation

     Convergence has been achieved 


     Representation #  11 mode #  11

     Self-consistent Calculation

      iter #   1 total cpu time :  2071.1 secs   av.it.:   6.4
      thresh= 1.000E-02 alpha_mix =  0.300 |ddv_scf|^2 =  1.668E-09

      iter #   2 total cpu time :  2085.1 secs   av.it.:  15.2
      thresh= 4.084E-06 alpha_mix =  0.300 |ddv_scf|^2 =  7.538E-10

      iter #   3 total cpu time :  2097.3 secs   av.it.:  15.9
      thresh= 2.746E-06 alpha_mix =  0.300 |ddv_scf|^2 =  4.383E-12

      iter #   4 total cpu time :  2112.1 secs   av.it.:  15.7
      thresh= 2.094E-07 alpha_mix =  0.300 |ddv_scf|^2 =  1.362E-13

      iter #   5 total cpu time :  2125.1 secs   av.it.:  15.7
      thresh= 3.691E-08 alpha_mix =  0.300 |ddv_scf|^2 =  8.313E-15

     End of self-consistent calculation

     Convergence has been achieved 


     Representation #  12 modes #  12  13

     Self-consistent Calculation

      iter #   1 total cpu time :  2155.3 secs   av.it.:   7.0
      thresh= 1.000E-02 alpha_mix =  0.300 |ddv_scf|^2 =  1.959E-09

      iter #   2 total cpu time :  2175.1 secs   av.it.:  17.5
      thresh= 4.426E-06 alpha_mix =  0.300 |ddv_scf|^2 =  4.768E-10

      iter #   3 total cpu time :  2194.6 secs   av.it.:  18.0
      thresh= 2.184E-06 alpha_mix =  0.300 |ddv_scf|^2 =  2.917E-11

      iter #   4 total cpu time :  2215.6 secs   av.it.:  18.3
      thresh= 5.401E-07 alpha_mix =  0.300 |ddv_scf|^2 =  1.317E-12

      iter #   5 total cpu time :  2237.3 secs   av.it.:  18.0
      thresh= 1.148E-07 alpha_mix =  0.300 |ddv_scf|^2 =  1.816E-13

      iter #   6 total cpu time :  2257.9 secs   av.it.:  18.1
      thresh= 4.261E-08 alpha_mix =  0.300 |ddv_scf|^2 =  1.978E-14

      iter #   7 total cpu time :  2278.0 secs   av.it.:  18.3
      thresh= 1.406E-08 alpha_mix =  0.300 |ddv_scf|^2 =  5.602E-16

     End of self-consistent calculation

     Convergence has been achieved 


     Representation #  13 modes #  14  15

     Self-consistent Calculation

      iter #   1 total cpu time :  2310.8 secs   av.it.:   7.6
      thresh= 1.000E-02 alpha_mix =  0.300 |ddv_scf|^2 =  1.243E-08

      iter #   2 total cpu time :  2329.8 secs   av.it.:  17.3
      thresh= 1.115E-05 alpha_mix =  0.300 |ddv_scf|^2 =  2.345E-09

      iter #   3 total cpu time :  2350.0 secs   av.it.:  17.9
      thresh= 4.842E-06 alpha_mix =  0.300 |ddv_scf|^2 =  6.693E-11

      iter #   4 total cpu time :  2371.2 secs   av.it.:  18.3
      thresh= 8.181E-07 alpha_mix =  0.300 |ddv_scf|^2 =  3.383E-12

      iter #   5 total cpu time :  2392.2 secs   av.it.:  18.2
      thresh= 1.839E-07 alpha_mix =  0.300 |ddv_scf|^2 =  2.053E-13

      iter #   6 total cpu time :  2413.4 secs   av.it.:  17.7
      thresh= 4.531E-08 alpha_mix =  0.300 |ddv_scf|^2 =  4.479E-14

      iter #   7 total cpu time :  2433.7 secs   av.it.:  18.1
      thresh= 2.116E-08 alpha_mix =  0.300 |ddv_scf|^2 =  1.226E-15

     End of self-consistent calculation

     Convergence has been achieved 


     Representation #  14 modes #  16  17

     Self-consistent Calculation

      iter #   1 total cpu time :  2463.0 secs   av.it.:   7.3
      thresh= 1.000E-02 alpha_mix =  0.300 |ddv_scf|^2 =  8.156E-09

      iter #   2 total cpu time :  2481.8 secs   av.it.:  17.1
      thresh= 9.031E-06 alpha_mix =  0.300 |ddv_scf|^2 =  1.572E-09

      iter #   3 total cpu time :  2503.3 secs   av.it.:  17.8
      thresh= 3.964E-06 alpha_mix =  0.300 |ddv_scf|^2 =  4.955E-11

      iter #   4 total cpu time :  2524.2 secs   av.it.:  18.2
      thresh= 7.039E-07 alpha_mix =  0.300 |ddv_scf|^2 =  2.865E-12

      iter #   5 total cpu time :  2544.6 secs   av.it.:  18.0
      thresh= 1.693E-07 alpha_mix =  0.300 |ddv_scf|^2 =  1.725E-13

      iter #   6 total cpu time :  2568.1 secs   av.it.:  17.5
      thresh= 4.153E-08 alpha_mix =  0.300 |ddv_scf|^2 =  3.431E-14

      iter #   7 total cpu time :  2586.8 secs   av.it.:  18.0
      thresh= 1.852E-08 alpha_mix =  0.300 |ddv_scf|^2 =  1.059E-15

     End of self-consistent calculation

     Convergence has been achieved 


     Representation #  15 modes #  18  19

     Self-consistent Calculation

      iter #   1 total cpu time :  2618.7 secs   av.it.:   7.2
      thresh= 1.000E-02 alpha_mix =  0.300 |ddv_scf|^2 =  7.389E-09

      iter #   2 total cpu time :  2638.2 secs   av.it.:  16.9
      thresh= 8.596E-06 alpha_mix =  0.300 |ddv_scf|^2 =  1.468E-09

      iter #   3 total cpu time :  2658.2 secs   av.it.:  17.7
      thresh= 3.832E-06 alpha_mix =  0.300 |ddv_scf|^2 =  3.966E-11

      iter #   4 total cpu time :  2678.7 secs   av.it.:  18.0
      thresh= 6.297E-07 alpha_mix =  0.300 |ddv_scf|^2 =  2.980E-12

      iter #   5 total cpu time :  2699.4 secs   av.it.:  17.9
      thresh= 1.726E-07 alpha_mix =  0.300 |ddv_scf|^2 =  1.521E-13

      iter #   6 total cpu time :  2720.5 secs   av.it.:  17.5
      thresh= 3.900E-08 alpha_mix =  0.300 |ddv_scf|^2 =  2.813E-14

      iter #   7 total cpu time :  2740.2 secs   av.it.:  18.1
      thresh= 1.677E-08 alpha_mix =  0.300 |ddv_scf|^2 =  7.287E-16

     End of self-consistent calculation

     Convergence has been achieved 


     Representation #  16 modes #  20  21

     Self-consistent Calculation

      iter #   1 total cpu time :  2769.4 secs   av.it.:   7.3
      thresh= 1.000E-02 alpha_mix =  0.300 |ddv_scf|^2 =  7.386E-09

      iter #   2 total cpu time :  2789.0 secs   av.it.:  17.3
      thresh= 8.594E-06 alpha_mix =  0.300 |ddv_scf|^2 =  1.469E-09

      iter #   3 total cpu time :  2809.9 secs   av.it.:  17.9
      thresh= 3.833E-06 alpha_mix =  0.300 |ddv_scf|^2 =  3.962E-11

      iter #   4 total cpu time :  2831.7 secs   av.it.:  18.2
      thresh= 6.294E-07 alpha_mix =  0.300 |ddv_scf|^2 =  2.970E-12

      iter #   5 total cpu time :  2850.3 secs   av.it.:  18.1
      thresh= 1.723E-07 alpha_mix =  0.300 |ddv_scf|^2 =  1.562E-13

      iter #   6 total cpu time :  2870.7 secs   av.it.:  17.7
      thresh= 3.953E-08 alpha_mix =  0.300 |ddv_scf|^2 =  2.816E-14

      iter #   7 total cpu time :  2892.0 secs   av.it.:  18.4
      thresh= 1.678E-08 alpha_mix =  0.300 |ddv_scf|^2 =  7.288E-16

     End of self-consistent calculation

     Convergence has been achieved 


     Representation #  17 modes #  22  23

     Self-consistent Calculation

      iter #   1 total cpu time :  2922.5 secs   av.it.:   6.8
      thresh= 1.000E-02 alpha_mix =  0.300 |ddv_scf|^2 =  1.115E-09

      iter #   2 total cpu time :  2942.6 secs   av.it.:  17.5
      thresh= 3.340E-06 alpha_mix =  0.300 |ddv_scf|^2 =  2.720E-10

      iter #   3 total cpu time :  2962.7 secs   av.it.:  17.8
      thresh= 1.649E-06 alpha_mix =  0.300 |ddv_scf|^2 =  2.677E-11

      iter #   4 total cpu time :  2986.2 secs   av.it.:  18.1
      thresh= 5.174E-07 alpha_mix =  0.300 |ddv_scf|^2 =  7.375E-13

      iter #   5 total cpu time :  3006.2 secs   av.it.:  17.9
      thresh= 8.588E-08 alpha_mix =  0.300 |ddv_scf|^2 =  1.536E-13

      iter #   6 total cpu time :  3025.7 secs   av.it.:  18.2
      thresh= 3.920E-08 alpha_mix =  0.300 |ddv_scf|^2 =  1.049E-14

      iter #   7 total cpu time :  3046.2 secs   av.it.:  18.2
      thresh= 1.024E-08 alpha_mix =  0.300 |ddv_scf|^2 =  2.430E-16

     End of self-consistent calculation

     Convergence has been achieved 


     Representation #  18 modes #  24  25

     Self-consistent Calculation

      iter #   1 total cpu time :  3077.3 secs   av.it.:   7.4
      thresh= 1.000E-02 alpha_mix =  0.300 |ddv_scf|^2 =  6.764E-09

      iter #   2 total cpu time :  3096.9 secs   av.it.:  17.4
      thresh= 8.224E-06 alpha_mix =  0.300 |ddv_scf|^2 =  1.430E-09

      iter #   3 total cpu time :  3117.9 secs   av.it.:  18.0
      thresh= 3.781E-06 alpha_mix =  0.300 |ddv_scf|^2 =  5.661E-11

      iter #   4 total cpu time :  3137.8 secs   av.it.:  18.3
      thresh= 7.524E-07 alpha_mix =  0.300 |ddv_scf|^2 =  2.656E-12

      iter #   5 total cpu time :  3160.0 secs   av.it.:  18.2
      thresh= 1.630E-07 alpha_mix =  0.300 |ddv_scf|^2 =  1.770E-13

      iter #   6 total cpu time :  3182.2 secs   av.it.:  17.7
      thresh= 4.207E-08 alpha_mix =  0.300 |ddv_scf|^2 =  3.524E-14

      iter #   7 total cpu time :  3201.8 secs   av.it.:  18.2
      thresh= 1.877E-08 alpha_mix =  0.300 |ddv_scf|^2 =  1.183E-15

     End of self-consistent calculation

     Convergence has been achieved 


     Representation #  19 modes #  26  27

     Self-consistent Calculation

      iter #   1 total cpu time :  3232.3 secs   av.it.:   7.3
      thresh= 1.000E-02 alpha_mix =  0.300 |ddv_scf|^2 =  3.998E-09

      iter #   2 total cpu time :  3251.7 secs   av.it.:  17.4
      thresh= 6.323E-06 alpha_mix =  0.300 |ddv_scf|^2 =  9.924E-10

      iter #   3 total cpu time :  3272.2 secs   av.it.:  18.1
      thresh= 3.150E-06 alpha_mix =  0.300 |ddv_scf|^2 =  3.741E-11

      iter #   4 total cpu time :  3293.6 secs   av.it.:  18.3
      thresh= 6.116E-07 alpha_mix =  0.300 |ddv_scf|^2 =  1.748E-12

      iter #   5 total cpu time :  3314.7 secs   av.it.:  18.0
      thresh= 1.322E-07 alpha_mix =  0.300 |ddv_scf|^2 =  1.506E-13

      iter #   6 total cpu time :  3333.4 secs   av.it.:  17.8
      thresh= 3.881E-08 alpha_mix =  0.300 |ddv_scf|^2 =  2.512E-14

      iter #   7 total cpu time :  3354.2 secs   av.it.:  18.2
      thresh= 1.585E-08 alpha_mix =  0.300 |ddv_scf|^2 =  1.166E-15

     End of self-consistent calculation

     Convergence has been achieved 


     Representation #  20 modes #  28  29

     Self-consistent Calculation

      iter #   1 total cpu time :  3384.3 secs   av.it.:   7.3
      thresh= 1.000E-02 alpha_mix =  0.300 |ddv_scf|^2 =  8.156E-09

      iter #   2 total cpu time :  3406.4 secs   av.it.:  17.3
      thresh= 9.031E-06 alpha_mix =  0.300 |ddv_scf|^2 =  1.572E-09

      iter #   3 total cpu time :  3427.2 secs   av.it.:  17.9
      thresh= 3.964E-06 alpha_mix =  0.300 |ddv_scf|^2 =  4.955E-11

      iter #   4 total cpu time :  3448.2 secs   av.it.:  18.3
      thresh= 7.039E-07 alpha_mix =  0.300 |ddv_scf|^2 =  2.863E-12

      iter #   5 total cpu time :  3468.4 secs   av.it.:  18.1
      thresh= 1.692E-07 alpha_mix =  0.300 |ddv_scf|^2 =  1.723E-13

      iter #   6 total cpu time :  3489.7 secs   av.it.:  17.7
      thresh= 4.151E-08 alpha_mix =  0.300 |ddv_scf|^2 =  3.433E-14

      iter #   7 total cpu time :  3510.7 secs   av.it.:  18.2
      thresh= 1.853E-08 alpha_mix =  0.300 |ddv_scf|^2 =  1.058E-15

     End of self-consistent calculation

     Convergence has been achieved 


     Representation #  21 modes #  30  31

     Self-consistent Calculation

      iter #   1 total cpu time :  3545.3 secs   av.it.:   7.5
      thresh= 1.000E-02 alpha_mix =  0.300 |ddv_scf|^2 =  8.802E-09

      iter #   2 total cpu time :  3566.3 secs   av.it.:  17.4
      thresh= 9.382E-06 alpha_mix =  0.300 |ddv_scf|^2 =  1.707E-09

      iter #   3 total cpu time :  3587.0 secs   av.it.:  18.0
      thresh= 4.132E-06 alpha_mix =  0.300 |ddv_scf|^2 =  5.209E-11

      iter #   4 total cpu time :  3608.6 secs   av.it.:  18.3
      thresh= 7.218E-07 alpha_mix =  0.300 |ddv_scf|^2 =  3.058E-12

      iter #   5 total cpu time :  3628.8 secs   av.it.:  18.2
      thresh= 1.749E-07 alpha_mix =  0.300 |ddv_scf|^2 =  1.416E-13

      iter #   6 total cpu time :  3649.2 secs   av.it.:  17.6
      thresh= 3.763E-08 alpha_mix =  0.300 |ddv_scf|^2 =  3.392E-14

      iter #   7 total cpu time :  3668.9 secs   av.it.:  18.2
      thresh= 1.842E-08 alpha_mix =  0.300 |ddv_scf|^2 =  9.606E-16

     End of self-consistent calculation

     Convergence has been achieved 


     Representation #  22 modes #  32  33

     Self-consistent Calculation

      iter #   1 total cpu time :  3700.0 secs   av.it.:  10.8
      thresh= 1.000E-02 alpha_mix =  0.300 |ddv_scf|^2 =  4.542E-07

      iter #   2 total cpu time :  3719.9 secs   av.it.:  16.7
      thresh= 6.739E-05 alpha_mix =  0.300 |ddv_scf|^2 =  6.654E-08

      iter #   3 total cpu time :  3740.0 secs   av.it.:  17.2
      thresh= 2.580E-05 alpha_mix =  0.300 |ddv_scf|^2 =  4.308E-10

      iter #   4 total cpu time :  3759.7 secs   av.it.:  17.8
      thresh= 2.076E-06 alpha_mix =  0.300 |ddv_scf|^2 =  3.194E-11

      iter #   5 total cpu time :  3782.1 secs   av.it.:  17.6
      thresh= 5.652E-07 alpha_mix =  0.300 |ddv_scf|^2 =  3.559E-12

      iter #   6 total cpu time :  3802.3 secs   av.it.:  17.9
      thresh= 1.887E-07 alpha_mix =  0.300 |ddv_scf|^2 =  1.184E-13

      iter #   7 total cpu time :  3821.2 secs   av.it.:  17.9
      thresh= 3.440E-08 alpha_mix =  0.300 |ddv_scf|^2 =  4.375E-15

     End of self-consistent calculation

     Convergence has been achieved 
 
     Number of q in the star =    8
     List of q in the star:
          1   0.117851130   0.117851130  -0.117851130
          2   0.117851130  -0.117851130  -0.117851130
          3   0.117851130   0.117851130   0.117851130
          4  -0.117851130  -0.117851130   0.117851130
          5  -0.117851130   0.117851130  -0.117851130
          6  -0.117851130  -0.117851130  -0.117851130
          7  -0.117851130   0.117851130   0.117851130
          8   0.117851130  -0.117851130   0.117851130

     Diagonalizing the dynamical matrix

     q = (    0.117851130   0.117851130  -0.117851130 ) 

 **************************************************************************
     freq (    1) =       3.886382 [THz] =     129.635744 [cm-1]
     freq (    2) =       3.886382 [THz] =     129.635744 [cm-1]
     freq (    3) =       6.305420 [THz] =     210.326169 [cm-1]
     freq (    4) =      22.829042 [THz] =     761.494887 [cm-1]
     freq (    5) =      24.370912 [THz] =     812.926108 [cm-1]
     freq (    6) =      24.370912 [THz] =     812.926108 [cm-1]
     freq (    7) =      28.875609 [THz] =     963.186637 [cm-1]
     freq (    8) =      28.875609 [THz] =     963.186637 [cm-1]
     freq (    9) =      29.569025 [THz] =     986.316502 [cm-1]
     freq (   10) =      37.110158 [THz] =    1237.861644 [cm-1]
     freq (   11) =      37.110158 [THz] =    1237.861644 [cm-1]
     freq (   12) =      38.632468 [THz] =    1288.640412 [cm-1]
     freq (   13) =      39.907941 [THz] =    1331.185607 [cm-1]
     freq (   14) =      39.907941 [THz] =    1331.185607 [cm-1]
     freq (   15) =      40.262146 [THz] =    1343.000614 [cm-1]
     freq (   16) =      42.235210 [THz] =    1408.814967 [cm-1]
     freq (   17) =      42.235210 [THz] =    1408.814967 [cm-1]
     freq (   18) =      42.388365 [THz] =    1413.923661 [cm-1]
     freq (   19) =      42.535717 [THz] =    1418.838805 [cm-1]
     freq (   20) =      43.010205 [THz] =    1434.666010 [cm-1]
     freq (   21) =      43.010205 [THz] =    1434.666010 [cm-1]
     freq (   22) =      43.927101 [THz] =    1465.250365 [cm-1]
     freq (   23) =      43.927101 [THz] =    1465.250365 [cm-1]
     freq (   24) =      50.562221 [THz] =    1686.574166 [cm-1]
     freq (   25) =      50.562221 [THz] =    1686.574166 [cm-1]
     freq (   26) =      53.797083 [THz] =    1794.477540 [cm-1]
     freq (   27) =      53.978254 [THz] =    1800.520735 [cm-1]
     freq (   28) =      53.978254 [THz] =    1800.520735 [cm-1]
     freq (   29) =      54.512631 [THz] =    1818.345659 [cm-1]
     freq (   30) =      54.512631 [THz] =    1818.345659 [cm-1]
     freq (   31) =      55.148810 [THz] =    1839.566291 [cm-1]
     freq (   32) =      59.848468 [THz] =    1996.330005 [cm-1]
     freq (   33) =      69.335470 [THz] =    2312.782318 [cm-1]
 **************************************************************************

     Mode symmetry, C_3v (3m)   point group:

     freq (   1-   2) =        129.6  [cm-1]   --> E    L_3           
     freq (   3-   3) =        210.3  [cm-1]   --> A_1  L_1           
     freq (   4-   4) =        761.5  [cm-1]   --> A_1  L_1           
     freq (   5-   6) =        812.9  [cm-1]   --> E    L_3           
     freq (   7-   8) =        963.2  [cm-1]   --> E    L_3           
     freq (   9-   9) =        986.3  [cm-1]   --> A_1  L_1           
     freq (  10-  11) =       1237.9  [cm-1]   --> E    L_3           
     freq (  12-  12) =       1288.6  [cm-1]   --> A_2  L_2           
     freq (  13-  14) =       1331.2  [cm-1]   --> E    L_3           
     freq (  15-  15) =       1343.0  [cm-1]   --> A_1  L_1           
     freq (  16-  17) =       1408.8  [cm-1]   --> E    L_3           
     freq (  18-  18) =       1413.9  [cm-1]   --> A_2  L_2           
     freq (  19-  19) =       1418.8  [cm-1]   --> A_1  L_1           
     freq (  20-  21) =       1434.7  [cm-1]   --> E    L_3           
     freq (  22-  23) =       1465.3  [cm-1]   --> E    L_3           
     freq (  24-  25) =       1686.6  [cm-1]   --> E    L_3           
     freq (  26-  26) =       1794.5  [cm-1]   --> A_1  L_1           
     freq (  27-  28) =       1800.5  [cm-1]   --> E    L_3           
     freq (  29-  30) =       1818.3  [cm-1]   --> E    L_3           
     freq (  31-  31) =       1839.6  [cm-1]   --> A_1  L_1           
     freq (  32-  32) =       1996.3  [cm-1]   --> A_1  L_1           
     freq (  33-  33) =       2312.8  [cm-1]   --> A_1  L_1           
     Electron-phonon interaction  ...

     Gaussian Broadening:   0.005 Ry, ngauss=   0
     DOS =  4.794684 states/spin/Ry/Unit Cell at Ef= 22.110855 eV
     lambda(    1)=  0.0343   gamma=    2.37 GHz
     lambda(    2)=  0.0305   gamma=    2.11 GHz
     lambda(    3)=  0.0669   gamma=   12.18 GHz
     lambda(    4)=  0.1273   gamma=  303.71 GHz
     lambda(    5)=  0.0258   gamma=   70.17 GHz
     lambda(    6)=  0.0237   gamma=   64.53 GHz
     lambda(    7)=  0.0206   gamma=   78.62 GHz
     lambda(    8)=  0.0209   gamma=   79.77 GHz
     lambda(    9)=  0.0364   gamma=  145.54 GHz
     lambda(   10)=  0.0305   gamma=  192.42 GHz
     lambda(   11)=  0.0302   gamma=  190.26 GHz
     lambda(   12)=  0.0070   gamma=   47.59 GHz
     lambda(   13)=  0.0148   gamma=  107.81 GHz
     lambda(   14)=  0.0135   gamma=   98.76 GHz
     lambda(   15)=  0.0469   gamma=  348.12 GHz
     lambda(   16)=  0.0447   gamma=  365.09 GHz
     lambda(   17)=  0.0446   gamma=  364.52 GHz
     lambda(   18)=  0.0488   gamma=  401.81 GHz
     lambda(   19)=  0.0549   gamma=  454.79 GHz
     lambda(   20)=  0.0153   gamma=  129.71 GHz
     lambda(   21)=  0.0136   gamma=  114.92 GHz
     lambda(   22)=  0.0403   gamma=  356.26 GHz
     lambda(   23)=  0.0382   gamma=  337.61 GHz
     lambda(   24)=  0.0326   gamma=  382.01 GHz
     lambda(   25)=  0.0329   gamma=  385.57 GHz
     lambda(   26)=  0.0289   gamma=  382.78 GHz
     lambda(   27)=  0.0159   gamma=  211.75 GHz
     lambda(   28)=  0.0161   gamma=  215.08 GHz
     lambda(   29)=  0.0211   gamma=  287.44 GHz
     lambda(   30)=  0.0211   gamma=  287.33 GHz
     lambda(   31)=  0.0151   gamma=  209.62 GHz
     lambda(   32)=  0.0086   gamma=  141.31 GHz
     lambda(   33)=  0.0176   gamma=  388.43 GHz
     Gaussian Broadening:   0.010 Ry, ngauss=   0
     DOS =  4.491154 states/spin/Ry/Unit Cell at Ef= 22.118081 eV
     lambda(    1)=  0.0276   gamma=    1.79 GHz
     lambda(    2)=  0.0267   gamma=    1.73 GHz
     lambda(    3)=  0.0555   gamma=    9.46 GHz
     lambda(    4)=  0.1439   gamma=  321.57 GHz
     lambda(    5)=  0.0281   gamma=   71.55 GHz
     lambda(    6)=  0.0272   gamma=   69.19 GHz
     lambda(    7)=  0.0146   gamma=   52.13 GHz
     lambda(    8)=  0.0151   gamma=   53.82 GHz
     lambda(    9)=  0.0285   gamma=  106.85 GHz
     lambda(   10)=  0.0248   gamma=  146.73 GHz
     lambda(   11)=  0.0245   gamma=  144.73 GHz
     lambda(   12)=  0.0047   gamma=   29.91 GHz
     lambda(   13)=  0.0118   gamma=   80.71 GHz
     lambda(   14)=  0.0117   gamma=   80.01 GHz
     lambda(   15)=  0.0466   gamma=  324.19 GHz
     lambda(   16)=  0.0304   gamma=  232.45 GHz
     lambda(   17)=  0.0305   gamma=  232.99 GHz
     lambda(   18)=  0.0332   gamma=  255.76 GHz
     lambda(   19)=  0.0421   gamma=  326.78 GHz
     lambda(   20)=  0.0109   gamma=   86.75 GHz
     lambda(   21)=  0.0100   gamma=   79.17 GHz
     lambda(   22)=  0.0275   gamma=  227.70 GHz
     lambda(   23)=  0.0263   gamma=  217.67 GHz
     lambda(   24)=  0.0298   gamma=  326.82 GHz
     lambda(   25)=  0.0302   gamma=  331.42 GHz
     lambda(   26)=  0.0299   gamma=  371.37 GHz
     lambda(   27)=  0.0190   gamma=  237.27 GHz
     lambda(   28)=  0.0190   gamma=  237.32 GHz
     lambda(   29)=  0.0162   gamma=  206.24 GHz
     lambda(   30)=  0.0164   gamma=  208.90 GHz
     lambda(   31)=  0.0132   gamma=  171.71 GHz
     lambda(   32)=  0.0125   gamma=  191.58 GHz
     lambda(   33)=  0.0285   gamma=  586.64 GHz
     Gaussian Broadening:   0.015 Ry, ngauss=   0
     DOS =  4.448291 states/spin/Ry/Unit Cell at Ef= 22.124358 eV
     lambda(    1)=  0.0246   gamma=    1.58 GHz
     lambda(    2)=  0.0243   gamma=    1.56 GHz
     lambda(    3)=  0.0498   gamma=    8.41 GHz
     lambda(    4)=  0.1376   gamma=  304.54 GHz
     lambda(    5)=  0.0300   gamma=   75.70 GHz
     lambda(    6)=  0.0293   gamma=   73.88 GHz
     lambda(    7)=  0.0120   gamma=   42.34 GHz
     lambda(    8)=  0.0123   gamma=   43.50 GHz
     lambda(    9)=  0.0252   gamma=   93.65 GHz
     lambda(   10)=  0.0198   gamma=  115.59 GHz
     lambda(   11)=  0.0195   gamma=  114.30 GHz
     lambda(   12)=  0.0037   gamma=   23.67 GHz
     lambda(   13)=  0.0105   gamma=   71.14 GHz
     lambda(   14)=  0.0108   gamma=   73.12 GHz
     lambda(   15)=  0.0429   gamma=  295.45 GHz
     lambda(   16)=  0.0228   gamma=  173.11 GHz
     lambda(   17)=  0.0229   gamma=  173.55 GHz
     lambda(   18)=  0.0280   gamma=  213.79 GHz
     lambda(   19)=  0.0362   gamma=  278.20 GHz
     lambda(   20)=  0.0089   gamma=   69.65 GHz
     lambda(   21)=  0.0083   gamma=   65.34 GHz
     lambda(   22)=  0.0244   gamma=  199.75 GHz
     lambda(   23)=  0.0238   gamma=  195.28 GHz
     lambda(   24)=  0.0272   gamma=  295.17 GHz
     lambda(   25)=  0.0274   gamma=  297.94 GHz
     lambda(   26)=  0.0290   gamma=  356.44 GHz
     lambda(   27)=  0.0199   gamma=  246.15 GHz
     lambda(   28)=  0.0199   gamma=  246.61 GHz
     lambda(   29)=  0.0135   gamma=  170.85 GHz
     lambda(   30)=  0.0138   gamma=  174.53 GHz
     lambda(   31)=  0.0124   gamma=  159.84 GHz
     lambda(   32)=  0.0129   gamma=  195.91 GHz
     lambda(   33)=  0.0322   gamma=  656.74 GHz
     Gaussian Broadening:   0.020 Ry, ngauss=   0
     DOS =  4.528357 states/spin/Ry/Unit Cell at Ef= 22.128042 eV
     lambda(    1)=  0.0238   gamma=    1.56 GHz
     lambda(    2)=  0.0234   gamma=    1.53 GHz
     lambda(    3)=  0.0471   gamma=    8.09 GHz
     lambda(    4)=  0.1292   gamma=  291.12 GHz
     lambda(    5)=  0.0307   gamma=   78.93 GHz
     lambda(    6)=  0.0300   gamma=   77.01 GHz
     lambda(    7)=  0.0111   gamma=   39.93 GHz
     lambda(    8)=  0.0113   gamma=   40.78 GHz
     lambda(    9)=  0.0241   gamma=   91.01 GHz
     lambda(   10)=  0.0177   gamma=  105.50 GHz
     lambda(   11)=  0.0175   gamma=  104.29 GHz
     lambda(   12)=  0.0037   gamma=   24.14 GHz
     lambda(   13)=  0.0101   gamma=   69.51 GHz
     lambda(   14)=  0.0105   gamma=   72.01 GHz
     lambda(   15)=  0.0395   gamma=  276.74 GHz
     lambda(   16)=  0.0199   gamma=  153.76 GHz
     lambda(   17)=  0.0200   gamma=  153.99 GHz
     lambda(   18)=  0.0256   gamma=  198.65 GHz
     lambda(   19)=  0.0331   gamma=  258.69 GHz
     lambda(   20)=  0.0080   gamma=   63.78 GHz
     lambda(   21)=  0.0076   gamma=   60.99 GHz
     lambda(   22)=  0.0231   gamma=  192.72 GHz
     lambda(   23)=  0.0229   gamma=  191.25 GHz
     lambda(   24)=  0.0263   gamma=  290.57 GHz
     lambda(   25)=  0.0264   gamma=  291.52 GHz
     lambda(   26)=  0.0280   gamma=  349.95 GHz
     lambda(   27)=  0.0198   gamma=  249.13 GHz
     lambda(   28)=  0.0199   gamma=  250.74 GHz
     lambda(   29)=  0.0123   gamma=  158.18 GHz
     lambda(   30)=  0.0125   gamma=  160.93 GHz
     lambda(   31)=  0.0120   gamma=  158.16 GHz
     lambda(   32)=  0.0126   gamma=  194.44 GHz
     lambda(   33)=  0.0319   gamma=  663.67 GHz
     Gaussian Broadening:   0.025 Ry, ngauss=   0
     DOS =  4.634996 states/spin/Ry/Unit Cell at Ef= 22.128678 eV
     lambda(    1)=  0.0251   gamma=    1.68 GHz
     lambda(    2)=  0.0243   gamma=    1.63 GHz
     lambda(    3)=  0.0450   gamma=    7.93 GHz
     lambda(    4)=  0.1193   gamma=  275.26 GHz
     lambda(    5)=  0.0307   gamma=   80.63 GHz
     lambda(    6)=  0.0299   gamma=   78.59 GHz
     lambda(    7)=  0.0110   gamma=   40.68 GHz
     lambda(    8)=  0.0112   gamma=   41.39 GHz
     lambda(    9)=  0.0233   gamma=   90.32 GHz
     lambda(   10)=  0.0170   gamma=  103.61 GHz
     lambda(   11)=  0.0168   gamma=  102.24 GHz
     lambda(   12)=  0.0043   gamma=   28.45 GHz
     lambda(   13)=  0.0102   gamma=   72.00 GHz
     lambda(   14)=  0.0106   gamma=   74.72 GHz
     lambda(   15)=  0.0366   gamma=  262.88 GHz
     lambda(   16)=  0.0190   gamma=  149.89 GHz
     lambda(   17)=  0.0190   gamma=  150.04 GHz
     lambda(   18)=  0.0247   gamma=  196.82 GHz
     lambda(   19)=  0.0316   gamma=  252.69 GHz
     lambda(   20)=  0.0077   gamma=   62.79 GHz
     lambda(   21)=  0.0074   gamma=   60.88 GHz
     lambda(   22)=  0.0228   gamma=  194.43 GHz
     lambda(   23)=  0.0227   gamma=  194.29 GHz
     lambda(   24)=  0.0267   gamma=  301.58 GHz
     lambda(   25)=  0.0266   gamma=  301.08 GHz
     lambda(   26)=  0.0266   gamma=  340.47 GHz
     lambda(   27)=  0.0193   gamma=  249.18 GHz
     lambda(   28)=  0.0195   gamma=  251.69 GHz
     lambda(   29)=  0.0120   gamma=  157.73 GHz
     lambda(   30)=  0.0121   gamma=  159.01 GHz
     lambda(   31)=  0.0120   gamma=  161.42 GHz
     lambda(   32)=  0.0118   gamma=  187.05 GHz
     lambda(   33)=  0.0316   gamma=  671.75 GHz
     Gaussian Broadening:   0.030 Ry, ngauss=   0
     DOS =  4.755068 states/spin/Ry/Unit Cell at Ef= 22.126761 eV
     lambda(    1)=  0.0274   gamma=    1.88 GHz
     lambda(    2)=  0.0264   gamma=    1.81 GHz
     lambda(    3)=  0.0429   gamma=    7.75 GHz
     lambda(    4)=  0.1089   gamma=  257.68 GHz
     lambda(    5)=  0.0303   gamma=   81.77 GHz
     lambda(    6)=  0.0296   gamma=   79.77 GHz
     lambda(    7)=  0.0113   gamma=   42.75 GHz
     lambda(    8)=  0.0115   gamma=   43.36 GHz
     lambda(    9)=  0.0226   gamma=   89.76 GHz
     lambda(   10)=  0.0169   gamma=  105.99 GHz
     lambda(   11)=  0.0167   gamma=  104.48 GHz
     lambda(   12)=  0.0052   gamma=   35.45 GHz
     lambda(   13)=  0.0106   gamma=   76.70 GHz
     lambda(   14)=  0.0110   gamma=   79.51 GHz
     lambda(   15)=  0.0341   gamma=  251.24 GHz
     lambda(   16)=  0.0187   gamma=  151.25 GHz
     lambda(   17)=  0.0187   gamma=  151.42 GHz
     lambda(   18)=  0.0247   gamma=  201.14 GHz
     lambda(   19)=  0.0306   gamma=  251.74 GHz
     lambda(   20)=  0.0076   gamma=   63.69 GHz
     lambda(   21)=  0.0074   gamma=   62.37 GHz
     lambda(   22)=  0.0227   gamma=  198.93 GHz
     lambda(   23)=  0.0227   gamma=  199.20 GHz
     lambda(   24)=  0.0273   gamma=  317.21 GHz
     lambda(   25)=  0.0272   gamma=  315.85 GHz
     lambda(   26)=  0.0250   gamma=  328.47 GHz
     lambda(   27)=  0.0189   gamma=  249.81 GHz
     lambda(   28)=  0.0191   gamma=  252.72 GHz
     lambda(   29)=  0.0120   gamma=  162.31 GHz
     lambda(   30)=  0.0120   gamma=  162.36 GHz
     lambda(   31)=  0.0121   gamma=  166.45 GHz
     lambda(   32)=  0.0109   gamma=  176.50 GHz
     lambda(   33)=  0.0309   gamma=  675.59 GHz
     Gaussian Broadening:   0.035 Ry, ngauss=   0
     DOS =  4.903732 states/spin/Ry/Unit Cell at Ef= 22.122264 eV
     lambda(    1)=  0.0300   gamma=    2.12 GHz
     lambda(    2)=  0.0290   gamma=    2.05 GHz
     lambda(    3)=  0.0407   gamma=    7.58 GHz
     lambda(    4)=  0.0990   gamma=  241.55 GHz
     lambda(    5)=  0.0299   gamma=   83.09 GHz
     lambda(    6)=  0.0292   gamma=   81.28 GHz
     lambda(    7)=  0.0117   gamma=   45.51 GHz
     lambda(    8)=  0.0118   gamma=   46.03 GHz
     lambda(    9)=  0.0219   gamma=   89.58 GHz
     lambda(   10)=  0.0173   gamma=  111.52 GHz
     lambda(   11)=  0.0171   gamma=  109.99 GHz
     lambda(   12)=  0.0063   gamma=   44.35 GHz
     lambda(   13)=  0.0111   gamma=   83.07 GHz
     lambda(   14)=  0.0115   gamma=   85.90 GHz
     lambda(   15)=  0.0319   gamma=  242.24 GHz
     lambda(   16)=  0.0186   gamma=  155.12 GHz
     lambda(   17)=  0.0186   gamma=  155.33 GHz
     lambda(   18)=  0.0248   gamma=  208.91 GHz
     lambda(   19)=  0.0298   gamma=  252.58 GHz
     lambda(   20)=  0.0076   gamma=   65.60 GHz
     lambda(   21)=  0.0075   gamma=   64.72 GHz
     lambda(   22)=  0.0227   gamma=  204.68 GHz
     lambda(   23)=  0.0227   gamma=  204.94 GHz
     lambda(   24)=  0.0279   gamma=  333.77 GHz
     lambda(   25)=  0.0277   gamma=  332.07 GHz
     lambda(   26)=  0.0235   gamma=  318.35 GHz
     lambda(   27)=  0.0185   gamma=  252.69 GHz
     lambda(   28)=  0.0187   gamma=  255.62 GHz
     lambda(   29)=  0.0121   gamma=  169.04 GHz
     lambda(   30)=  0.0121   gamma=  168.28 GHz
     lambda(   31)=  0.0121   gamma=  172.79 GHz
     lambda(   32)=  0.0099   gamma=  165.97 GHz
     lambda(   33)=  0.0298   gamma=  671.32 GHz
     Gaussian Broadening:   0.040 Ry, ngauss=   0
     DOS =  5.088867 states/spin/Ry/Unit Cell at Ef= 22.114955 eV
     lambda(    1)=  0.0324   gamma=    2.38 GHz
     lambda(    2)=  0.0315   gamma=    2.31 GHz
     lambda(    3)=  0.0385   gamma=    7.44 GHz
     lambda(    4)=  0.0902   gamma=  228.51 GHz
     lambda(    5)=  0.0294   gamma=   84.93 GHz
     lambda(    6)=  0.0289   gamma=   83.39 GHz
     lambda(    7)=  0.0120   gamma=   48.71 GHz
     lambda(    8)=  0.0121   gamma=   49.16 GHz
     lambda(    9)=  0.0212   gamma=   90.11 GHz
     lambda(   10)=  0.0178   gamma=  119.29 GHz
     lambda(   11)=  0.0176   gamma=  117.84 GHz
     lambda(   12)=  0.0075   gamma=   54.10 GHz
     lambda(   13)=  0.0117   gamma=   90.70 GHz
     lambda(   14)=  0.0121   gamma=   93.52 GHz
     lambda(   15)=  0.0300   gamma=  236.23 GHz
     lambda(   16)=  0.0185   gamma=  160.72 GHz
     lambda(   17)=  0.0186   gamma=  160.97 GHz
     lambda(   18)=  0.0251   gamma=  218.80 GHz
     lambda(   19)=  0.0289   gamma=  254.40 GHz
     lambda(   20)=  0.0076   gamma=   68.28 GHz
     lambda(   21)=  0.0075   gamma=   67.74 GHz
     lambda(   22)=  0.0226   gamma=  211.54 GHz
     lambda(   23)=  0.0226   gamma=  211.64 GHz
     lambda(   24)=  0.0282   gamma=  350.84 GHz
     lambda(   25)=  0.0281   gamma=  349.19 GHz
     lambda(   26)=  0.0222   gamma=  312.30 GHz
     lambda(   27)=  0.0182   gamma=  257.92 GHz
     lambda(   28)=  0.0184   gamma=  260.67 GHz
     lambda(   29)=  0.0122   gamma=  176.81 GHz
     lambda(   30)=  0.0122   gamma=  175.57 GHz
     lambda(   31)=  0.0122   gamma=  180.24 GHz
     lambda(   32)=  0.0090   gamma=  157.08 GHz
     lambda(   33)=  0.0283   gamma=  661.44 GHz
     Gaussian Broadening:   0.045 Ry, ngauss=   0
     DOS =  5.309480 states/spin/Ry/Unit Cell at Ef= 22.104685 eV
     lambda(    1)=  0.0344   gamma=    2.64 GHz
     lambda(    2)=  0.0337   gamma=    2.58 GHz
     lambda(    3)=  0.0365   gamma=    7.35 GHz
     lambda(    4)=  0.0828   gamma=  218.71 GHz
     lambda(    5)=  0.0290   gamma=   87.33 GHz
     lambda(    6)=  0.0286   gamma=   86.07 GHz
     lambda(    7)=  0.0124   gamma=   52.22 GHz
     lambda(    8)=  0.0124   gamma=   52.60 GHz
     lambda(    9)=  0.0206   gamma=   91.42 GHz
     lambda(   10)=  0.0184   gamma=  128.37 GHz
     lambda(   11)=  0.0182   gamma=  127.07 GHz
     lambda(   12)=  0.0084   gamma=   63.86 GHz
     lambda(   13)=  0.0123   gamma=   99.13 GHz
     lambda(   14)=  0.0126   gamma=  101.90 GHz
     lambda(   15)=  0.0283   gamma=  232.91 GHz
     lambda(   16)=  0.0185   gamma=  167.55 GHz
     lambda(   17)=  0.0186   gamma=  167.82 GHz
     lambda(   18)=  0.0252   gamma=  229.93 GHz
     lambda(   19)=  0.0280   gamma=  257.07 GHz
     lambda(   20)=  0.0076   gamma=   71.60 GHz
     lambda(   21)=  0.0076   gamma=   71.34 GHz
     lambda(   22)=  0.0224   gamma=  219.53 GHz
     lambda(   23)=  0.0224   gamma=  219.43 GHz
     lambda(   24)=  0.0284   gamma=  368.61 GHz
     lambda(   25)=  0.0283   gamma=  367.23 GHz
     lambda(   26)=  0.0211   gamma=  310.26 GHz
     lambda(   27)=  0.0179   gamma=  264.87 GHz
     lambda(   28)=  0.0181   gamma=  267.40 GHz
     lambda(   29)=  0.0123   gamma=  185.05 GHz
     lambda(   30)=  0.0122   gamma=  183.55 GHz
     lambda(   31)=  0.0122   gamma=  188.30 GHz
     lambda(   32)=  0.0083   gamma=  150.15 GHz
     lambda(   33)=  0.0266   gamma=  648.94 GHz
     Gaussian Broadening:   0.050 Ry, ngauss=   0
     DOS =  5.560451 states/spin/Ry/Unit Cell at Ef= 22.091444 eV
     lambda(    1)=  0.0360   gamma=    2.89 GHz
     lambda(    2)=  0.0353   gamma=    2.83 GHz
     lambda(    3)=  0.0347   gamma=    7.32 GHz
     lambda(    4)=  0.0765   gamma=  211.61 GHz
     lambda(    5)=  0.0286   gamma=   90.18 GHz
     lambda(    6)=  0.0283   gamma=   89.17 GHz
     lambda(    7)=  0.0126   gamma=   55.91 GHz
     lambda(    8)=  0.0127   gamma=   56.24 GHz
     lambda(    9)=  0.0201   gamma=   93.39 GHz
     lambda(   10)=  0.0189   gamma=  138.01 GHz
     lambda(   11)=  0.0187   gamma=  136.88 GHz
     lambda(   12)=  0.0092   gamma=   73.08 GHz
     lambda(   13)=  0.0128   gamma=  107.99 GHz
     lambda(   14)=  0.0131   gamma=  110.65 GHz
     lambda(   15)=  0.0269   gamma=  231.63 GHz
     lambda(   16)=  0.0185   gamma=  175.13 GHz
     lambda(   17)=  0.0185   gamma=  175.38 GHz
     lambda(   18)=  0.0253   gamma=  241.79 GHz
     lambda(   19)=  0.0271   gamma=  260.49 GHz
     lambda(   20)=  0.0077   gamma=   75.44 GHz
     lambda(   21)=  0.0077   gamma=   75.40 GHz
     lambda(   22)=  0.0223   gamma=  228.49 GHz
     lambda(   23)=  0.0223   gamma=  228.23 GHz
     lambda(   24)=  0.0285   gamma=  387.13 GHz
     lambda(   25)=  0.0284   gamma=  386.12 GHz
     lambda(   26)=  0.0203   gamma=  311.22 GHz
     lambda(   27)=  0.0176   gamma=  272.78 GHz
     lambda(   28)=  0.0178   gamma=  275.11 GHz
     lambda(   29)=  0.0123   gamma=  193.44 GHz
     lambda(   30)=  0.0122   gamma=  191.81 GHz
     lambda(   31)=  0.0122   gamma=  196.45 GHz
     lambda(   32)=  0.0076   gamma=  144.85 GHz
     lambda(   33)=  0.0249   gamma=  635.63 GHz
 
 
     Number of q in the star =    8
     List of q in the star:
          1   0.117851130   0.117851130  -0.117851130
          2   0.117851130  -0.117851130  -0.117851130
          3   0.117851130   0.117851130   0.117851130
          4  -0.117851130  -0.117851130   0.117851130
          5  -0.117851130   0.117851130  -0.117851130
          6  -0.117851130  -0.117851130  -0.117851130
          7  -0.117851130   0.117851130   0.117851130
          8   0.117851130  -0.117851130   0.117851130
 
     init_run     :      0.41s CPU      0.78s WALL (       1 calls)
     electrons    :     10.80s CPU     13.63s WALL (       1 calls)

     Called by init_run:
     wfcinit      :      0.00s CPU      0.13s WALL (       1 calls)
     potinit      :      0.20s CPU      0.41s WALL (       1 calls)
     hinit0       :      0.10s CPU      0.11s WALL (       1 calls)

     Called by electrons:
     c_bands      :     10.78s CPU     13.62s WALL (       1 calls)
     v_of_rho     :      0.02s CPU      0.06s WALL (       2 calls)
     newd         :      0.05s CPU      0.08s WALL (       2 calls)
     PAW_pot      :      0.37s CPU      0.42s WALL (       2 calls)

     Called by c_bands:
     init_us_2    :      2.40s CPU      2.76s WALL (   26936 calls)
     cegterg      :      6.63s CPU      7.10s WALL (     217 calls)

     Called by *egterg:
     cdiaghg      :      2.05s CPU      2.14s WALL (    3657 calls)
     h_psi        :    840.19s CPU   1068.72s WALL (  571425 calls)
     s_psi        :     24.82s CPU     26.96s WALL ( 1166367 calls)
     g_psi        :      0.02s CPU      0.02s WALL (    3475 calls)

     Called by h_psi:
     h_psi:calbec :     17.89s CPU     19.40s WALL (  571425 calls)
     vloc_psi     :    804.88s CPU   1030.45s WALL (  571425 calls)
     add_vuspsi   :     12.83s CPU     13.94s WALL (  571425 calls)

     General routines
     calbec       :     62.23s CPU     65.78s WALL ( 1210047 calls)
     fft          :      2.11s CPU      2.69s WALL (    6307 calls)
     ffts         :     39.67s CPU     61.93s WALL (    4399 calls)
     fftw         :   1124.07s CPU   1558.03s WALL (10941661 calls)
     interpolate  :      0.78s CPU      1.07s WALL (     637 calls)
     davcio       :     12.73s CPU    701.75s WALL (  138765 calls)
 
     Parallel routines
 
     PHONON       :  40m25.10s CPU      1h 4m WALL

     INITIALIZATION: 
     phq_setup    :      0.02s CPU      0.06s WALL (       1 calls)
     phq_init     :     14.56s CPU     17.06s WALL (       1 calls)
 
     phq_init     :     14.56s CPU     17.06s WALL (       1 calls)
     set_drhoc    :      0.00s CPU      0.00s WALL (       3 calls)
     init_vloc    :      0.00s CPU      0.04s WALL (       2 calls)
     init_us_1    :      0.15s CPU      0.29s WALL (       2 calls)
     init_us_2    :      2.40s CPU      2.76s WALL (   26936 calls)
     newd         :      0.05s CPU      0.08s WALL (       2 calls)
     dvanqq       :      1.59s CPU      1.61s WALL (       1 calls)
     drho         :      9.54s CPU     11.20s WALL (       1 calls)
     drhous       :      4.18s CPU      4.82s WALL (       1 calls)
     nldyntot     :      0.33s CPU      0.33s WALL (       1 calls)
 
     DYNAMICAL MATRIX:
     dynmat0      :      1.72s CPU      2.26s WALL (       1 calls)
     dynmat_us    :      1.67s CPU      2.19s WALL (       1 calls)
     addusdynmat  :      0.00s CPU      0.00s WALL (       1 calls)
     d2ionq       :      0.04s CPU      0.04s WALL (       1 calls)
     dynmatcc     :      0.01s CPU      0.01s WALL (       1 calls)
     phqscf       :   2371.28s CPU   3794.65s WALL (       1 calls)
     dynmatrix    :      0.40s CPU      0.42s WALL (       1 calls)
 
     phqscf       :   2371.28s CPU   3794.65s WALL (       1 calls)
     solve_linter :   2344.03s CPU   3742.43s WALL (      22 calls)
     sth_kernel   :   1888.83s CPU   2858.89s WALL (     224 calls)
     h_prec       :    374.62s CPU    380.93s WALL (   20384 calls)
     apply_dpot_b :    205.84s CPU    314.04s WALL (   27391 calls)
     ortho        :     31.45s CPU     32.45s WALL (   27391 calls)
     cgsolve      :    915.15s CPU   1150.14s WALL (   27391 calls)
     incdrhoscf   :    223.35s CPU    333.59s WALL (   27391 calls)
                                        0.00s GPU  (   27391 calls)
     addusddens   :     23.60s CPU     31.24s WALL (     246 calls)
     vpsifft      :     35.52s CPU     56.25s WALL (    3003 calls)
     dv_of_drho   :      2.66s CPU      2.98s WALL (     301 calls)
     mix_pot      :     45.01s CPU    160.14s WALL (     224 calls)
     drhodv       :     27.21s CPU     37.39s WALL (      22 calls)
     psymdvscf    :     30.37s CPU     30.69s WALL (     224 calls)
     newdq        :     25.76s CPU     25.94s WALL (     224 calls)
     adddvscf     :      3.21s CPU      3.55s WALL (   27391 calls)
     com_dvloc    :     39.29s CPU     61.31s WALL (    3762 calls)
                                        0.00s GPU  (    3762 calls)
     addcore      :      0.45s CPU      0.54s WALL (    1423 calls)
                                        0.00s GPU  (    1423 calls)
     drhodvus     :     14.83s CPU     37.39s WALL (      22 calls)
 
     dvqpsi_us    :     52.30s CPU     75.01s WALL (    3003 calls)
                                        0.00s GPU  (    3003 calls)
     dvqpsi_us_on :      8.75s CPU      8.89s WALL (    3003 calls)
 
     add_vuspsi   :     12.83s CPU     13.94s WALL (  571425 calls)
     addusdbec    :      1.75s CPU      1.89s WALL (   30394 calls)
 
     drhodvus     :     14.83s CPU     37.39s WALL (      22 calls)
 
      Electron-phonon coupling
     elphel       :     44.30s CPU     90.39s WALL (      22 calls)
     elphsum      :     26.80s CPU     27.26s WALL (       1 calls)
 
      General routines
     calbec       :     62.23s CPU     65.78s WALL ( 1210047 calls)
     fft          :      2.11s CPU      2.69s WALL (    6307 calls)
     ffts         :     39.67s CPU     61.93s WALL (    4399 calls)
     fftw         :   1124.07s CPU   1558.03s WALL (10941661 calls)
     davcio       :     12.73s CPU    701.75s WALL (  138765 calls)
     write_rec    :      0.31s CPU    173.20s WALL (     246 calls)
 
      Additional routines
     ch_psi       :    903.10s CPU   1136.93s WALL (  567551 calls)
     last         :     48.21s CPU     52.26s WALL (  567551 calls)
     Hesh         :      1.61s CPU      1.78s WALL (  567551 calls)
     ch_psi_all_k :     43.95s CPU     47.65s WALL (  567551 calls)
                                        0.00s GPU  (  567551 calls)
     ch_psi_calbe :     14.45s CPU     15.58s WALL (  567551 calls)
                                        0.00s GPU  (  567551 calls)
     h_psi_bgrp   :    841.37s CPU   1069.99s WALL (  571425 calls)
     h_psi        :    840.19s CPU   1068.72s WALL (  571425 calls)
     h_psi:pot    :    838.12s CPU   1066.43s WALL (  571425 calls)
     h_psi:calbec :     17.89s CPU     19.40s WALL (  571425 calls)
     s_psi_bgrp   :     28.66s CPU     31.07s WALL ( 1166367 calls)
     s_psi        :     24.82s CPU     26.96s WALL ( 1166367 calls)
 
 
     PHONON       :  40m25.10s CPU      1h 4m WALL

 
   This run was terminated on:  16:55:11  22Oct2025            

=------------------------------------------------------------------------------=
   JOB DONE.
=------------------------------------------------------------------------------=
