
     Program PHONON v.7.4.1 starts on 22Oct2025 at 16:28:51 

     This program is part of the open-source Quantum ESPRESSO suite
     for quantum simulation of materials; please cite
         "P. Giannozzi et al., J. Phys.:Condens. Matter 21 395502 (2009);
         "P. Giannozzi et al., J. Phys.:Condens. Matter 29 465901 (2017);
         "P. Giannozzi et al., J. Chem. Phys. 152 154105 (2020);
          URL http://www.quantum-espresso.org", 
     in publications or presentations arising from this work. More details at
     http://www.quantum-espresso.org/quote

     Parallel version (MPI), running on    48 processors

     MPI processes distributed on     1 nodes
     180848 MiB available memory on the printing compute node when the environment starts
 
     Waiting for input...
     Reading input from standard input

     Reading xml data from directory:

     ./tmp/Ce1H10.save/
 
     K-points division:     npool     =       4
     R & G space division:  proc/nbgrp/npool/nimage =      12
     Subspace diagonalization in iterative solution of the eigenvalue problem:
     a serial algorithm will be used

     file Ce.paw.z_12.atompaw.wentzcovitch.v1.2.upf: wavefunction(s)  6S 0P 5D 0D 4F 0F renormalized
     file H.pbe-kjpaw_psl.1.0.0.UPF: wavefunction(s)  1S renormalized

     IMPORTANT: XC functional enforced from input :
     Exchange-correlation= PBE
                           (   1   4   3   4   0   0   0)
     Any further DFT definition will be discarded
     Please, verify this is what you really want

 
     Parallelization info
     --------------------
     sticks:   dense  smooth     PW     G-vecs:    dense   smooth      PW
     Min         226      76     22                 7730     1493     247
     Max         227      77     23                 7733     1495     249
     Sum        2713     913    271                92769    17933    2975
 
     Using Slab Decomposition
 
     Reading collected, re-writing distributed wavefunctions in ./tmp/


     Dynamical matrices for ( 6, 6, 6)  uniform grid of q-points
     (  16 q-points):
       N         xq(1)         xq(2)         xq(3) 
       1   0.000000000   0.000000000   0.000000000
       2   0.117851130   0.117851130  -0.117851130
       3   0.235702260   0.235702260  -0.235702260
       4  -0.353553391  -0.353553391   0.353553391
       5   0.235702260   0.000000000   0.000000000
       6   0.353553391   0.117851130  -0.117851130
       7  -0.235702260  -0.471404521   0.471404521
       8  -0.117851130  -0.353553391   0.353553391
       9   0.000000000  -0.235702260   0.235702260
      10   0.471404521   0.000000000   0.000000000
      11  -0.117851130  -0.589255651   0.589255651
      12  -0.000000000  -0.471404521   0.471404521
      13  -0.707106781   0.000000000   0.000000000
      14  -0.235702260  -0.471404521   0.707106781
      15  -0.117851130  -0.353553391   0.589255651
      16  -0.707106781   0.235702260   0.000000000

     Number and degeneracy of irreps per q-point
       N         xq(1)         xq(2)         xq(3)   N irreps
       1   0.000000000   0.000000000   0.000000000      13
        1   2   3   3   3   3   1   2   3   3   3   3   3
       2   0.117851130   0.117851130  -0.117851130      22
        1   1   1   1   1   1   1   1   1   1   1   2   2   2   2   2   2   2
   2   2   2   2
       3   0.235702260   0.235702260  -0.235702260      22
        1   1   1   1   1   1   1   1   1   1   1   2   2   2   2   2   2   2
   2   2   2   2
       4  -0.353553391  -0.353553391   0.353553391      22
        1   1   1   1   1   1   2   2   2   2   2   2   1   1   1   1   1   2
   2   2   2   2
       5   0.235702260   0.000000000   0.000000000      24
        1   1   1   1   1   1   1   1   1   1   1   1   1   1   1   2   2   2
   2   2   2   2   2   2
       6   0.353553391   0.117851130  -0.117851130      33
     No degeneracy
       7  -0.235702260  -0.471404521   0.471404521      33
     No degeneracy
       8  -0.117851130  -0.353553391   0.353553391      33
     No degeneracy
       9   0.000000000  -0.235702260   0.235702260      33
     No degeneracy
      10   0.471404521   0.000000000   0.000000000      24
        1   1   1   1   1   1   1   1   1   1   1   1   1   1   1   2   2   2
   2   2   2   2   2   2
      11  -0.117851130  -0.589255651   0.589255651      33
     No degeneracy
      12  -0.000000000  -0.471404521   0.471404521      33
     No degeneracy
      13  -0.707106781   0.000000000   0.000000000      24
        1   1   1   1   1   1   1   2   2   2   2   1   1   1   1   1   1   1
   1   2   2   2   2   2
      14  -0.235702260  -0.471404521   0.707106781      33
     No degeneracy
      15  -0.117851130  -0.353553391   0.589255651      33
     No degeneracy
      16  -0.707106781   0.235702260   0.000000000      33
     No degeneracy

     Saving dvscf to file. Distribute only q points, not irreducible representations.

     Calculation of q =   -0.3535534  -0.3535534   0.3535534
 
     Parallelization info
     --------------------
     sticks:   dense  smooth     PW     G-vecs:    dense   smooth      PW
     Min         226      76     25                 7730     1493     289
     Max         227      77     26                 7733     1495     292
     Sum        2713     913    301                92769    17933    3479
 
     Using Slab Decomposition
 

     Title: 
     Electron-phonon coefficients for Ce1H10                                    


     bravais-lattice index     =            0
     lattice parameter (alat)  =       6.3833  a.u.
     unit-cell volume          =     183.9165 (a.u.)^3
     number of atoms/cell      =           11
     number of atomic types    =            2
     number of electrons       =        22.00
     number of Kohn-Sham states=           15
     kinetic-energy cutoff     =      80.0000  Ry
     charge density cutoff     =     960.0000  Ry
     Exchange-correlation= PBE
                           (   1   4   3   4   0   0   0)

     celldm(1)=   6.383300  celldm(2)=   0.000000  celldm(3)=   0.000000
     celldm(4)=   0.000000  celldm(5)=   0.000000  celldm(6)=   0.000000

     crystal axes: (cart. coord. in units of alat)
               a(1) = (   0.000000   0.707107   0.707107 )  
               a(2) = (   0.707107   0.000000   0.707107 )  
               a(3) = (   0.707107   0.707107   0.000000 )  

     reciprocal axes: (cart. coord. in units 2 pi/alat)
               b(1) = ( -0.707107  0.707107  0.707107 )  
               b(2) = (  0.707107 -0.707107  0.707107 )  
               b(3) = (  0.707107  0.707107 -0.707107 )  


     PseudoPot. # 1 for Ce read from file:
     /work/home/mayuan/workplace/1.typical_hydride/003.MH10/2.CeH10/250/Tc-666-paw/pp/Ce.paw.z_12.atompaw.wentzcovitch.v1.2.upf
     MD5 check sum: 2241420ff980c77e0c917a2dc8a7e08e
     Pseudo is Projector augmented-wave + core cor, Zval = 12.0
     Generated using ATOMPAW code
     Shape of augmentation charge: BESSEL
     Using radial grid of 1102 points,  8 beta functions with: 
                l(1) =   0
                l(2) =   0
                l(3) =   1
                l(4) =   1
                l(5) =   2
                l(6) =   2
                l(7) =   3
                l(8) =   3
     Q(r) pseudized with 0 coefficients 


     PseudoPot. # 2 for H  read from file:
     /work/home/mayuan/workplace/1.typical_hydride/003.MH10/2.CeH10/250/Tc-666-paw/pp/H.pbe-kjpaw_psl.1.0.0.UPF
     MD5 check sum: 3bb27c602ede137025941d095c9090b7
     Pseudo is Projector augmented-wave, Zval =  1.0
     Generated using 'atomic' code by A. Dal Corso  v.7.1
     Shape of augmentation charge: PSQ
     Using radial grid of  929 points,  2 beta functions with: 
                l(1) =   0
                l(2) =   0
     Q(r) pseudized with 0 coefficients 


     atomic species   valence    mass     pseudopotential
     Ce               12.00   140.11600     Ce( 1.00)
     H                 1.00     1.00794     H ( 1.00)

     48 Sym. Ops., with inversion, found



   Cartesian axes

     site n.     atom                  positions (alat units)
         1        Ce     tau(   1) = (   0.7071068   0.7071068   0.7071068  )
         2        H      tau(   2) = (   0.3535534   0.3535534   0.3535534  )
         3        H      tau(   3) = (   1.0606602   1.0606602   1.0606602  )
         4        H      tau(   4) = (   1.2411448   1.2411448   1.2411448  )
         5        H      tau(   5) = (   0.1730688   0.1730688   0.1730688  )
         6        H      tau(   6) = (   0.8801756   0.8801756   1.2411448  )
         7        H      tau(   7) = (   0.5340380   0.5340380   0.1730688  )
         8        H      tau(   8) = (   0.8801756   1.2411448   0.8801756  )
         9        H      tau(   9) = (   0.5340380   0.1730688   0.5340380  )
        10        H      tau(  10) = (   1.2411448   0.8801756   0.8801756  )
        11        H      tau(  11) = (   0.1730688   0.5340380   0.5340380  )

     number of k points=   378  Gaussian smearing, width (Ry)=  0.0200

     Number of k-points >= 100: set verbosity='high' to print them.

     Dense  grid:    92769 G-vectors     FFT dimensions: (  64,  64,  64)

     Smooth grid:    17933 G-vectors     FFT dimensions: (  40,  40,  40)

     Estimated max dynamical RAM per process >      32.00 MB

     Estimated total dynamical RAM >       1.50 GB

     The potential is recalculated from file :
     ./tmp/_ph0/Ce1H10.q_4/Ce1H10.save/charge-density

     Starting wfcs are   42 atomic wfcs
     Checking if some PAW data can be deallocated... 

     Band Structure Calculation
     Davidson diagonalization with overlap

     ethr =  4.55E-11,  avg # of iterations = 19.0

     total cpu time spent up to now is        8.5 secs

     End of band structure calculation

     Number of k-points >= 100: set verbosity='high' to print the bands.

     the Fermi energy is    22.0987 ev

     Writing config to output data dir ./tmp/_ph0/Ce1H10.q_4/Ce1H10.save/ :
     XML data file

Possibly too few bands at point    1   0.00000   0.00000   0.00000

Possibly too few bands at point   14  -0.70711  -0.70711   0.70711

     Electron-phonon coefficients for Ce1H10                                    

     bravais-lattice index     =            0
     lattice parameter (alat)  =       6.3833  a.u.
     unit-cell volume          =     183.9165 (a.u.)^3
     number of atoms/cell      =           11
     number of atomic types    =            2
     kinetic-energy cut-off    =      80.0000  Ry
     charge density cut-off    =     960.0000  Ry
     convergence threshold     =      1.0E-14
     beta                      =       0.3000
     number of iterations used =            4
     Exchange-correlation= PBE
                           (   1   4   3   4   0   0   0)


     celldm(1)=    6.38330  celldm(2)=    0.00000  celldm(3)=    0.00000
     celldm(4)=    0.00000  celldm(5)=    0.00000  celldm(6)=    0.00000

     crystal axes: (cart. coord. in units of alat)
               a(1) = (  0.0000  0.7071  0.7071 )  
               a(2) = (  0.7071  0.0000  0.7071 )  
               a(3) = (  0.7071  0.7071  0.0000 )  

     reciprocal axes: (cart. coord. in units 2 pi/alat)
               b(1) = ( -0.7071  0.7071  0.7071 )  
               b(2) = (  0.7071 -0.7071  0.7071 )  
               b(3) = (  0.7071  0.7071 -0.7071 )  


     Atoms inside the unit cell: 

     Cartesian axes

     site n.  atom      mass           positions (alat units)
        1  Ce    140.1160   tau(    1) = (    0.70711    0.70711    0.70711  )
        2  H       1.0079   tau(    2) = (    0.35355    0.35355    0.35355  )
        3  H       1.0079   tau(    3) = (    1.06066    1.06066    1.06066  )
        4  H       1.0079   tau(    4) = (    1.24114    1.24114    1.24114  )
        5  H       1.0079   tau(    5) = (    0.17307    0.17307    0.17307  )
        6  H       1.0079   tau(    6) = (    0.88018    0.88018    1.24114  )
        7  H       1.0079   tau(    7) = (    0.53404    0.53404    0.17307  )
        8  H       1.0079   tau(    8) = (    0.88018    1.24114    0.88018  )
        9  H       1.0079   tau(    9) = (    0.53404    0.17307    0.53404  )
       10  H       1.0079   tau(   10) = (    1.24114    0.88018    0.88018  )
       11  H       1.0079   tau(   11) = (    0.17307    0.53404    0.53404  )

     Computing dynamical matrix for 
                    q = (  -0.3535534  -0.3535534   0.3535534 )
 
     13 Sym.Ops. (with q -> -q+G )


     G cutoff =  990.8365  (   7731 G-vectors)     FFT grid: ( 64, 64, 64)
     G cutoff =  330.2788  (   1495 G-vectors)  smooth grid: ( 40, 40, 40)

     number of k points=   378  Gaussian smearing, width (Ry)=  0.0200

     PseudoPot. # 1 for Ce read from file:
     /work/home/mayuan/workplace/1.typical_hydride/003.MH10/2.CeH10/250/Tc-666-paw/pp/Ce.paw.z_12.atompaw.wentzcovitch.v1.2.upf
     MD5 check sum: 2241420ff980c77e0c917a2dc8a7e08e
     Pseudo is Projector augmented-wave + core cor, Zval = 12.0
     Generated using ATOMPAW code
     Shape of augmentation charge: BESSEL
     Using radial grid of 1102 points,  8 beta functions with: 
                l(1) =   0
                l(2) =   0
                l(3) =   1
                l(4) =   1
                l(5) =   2
                l(6) =   2
                l(7) =   3
                l(8) =   3
     Q(r) pseudized with 0 coefficients 


     PseudoPot. # 2 for H  read from file:
     /work/home/mayuan/workplace/1.typical_hydride/003.MH10/2.CeH10/250/Tc-666-paw/pp/H.pbe-kjpaw_psl.1.0.0.UPF
     MD5 check sum: 3bb27c602ede137025941d095c9090b7
     Pseudo is Projector augmented-wave, Zval =  1.0
     Generated using 'atomic' code by A. Dal Corso  v.7.1
     Shape of augmentation charge: PSQ
     Using radial grid of  929 points,  2 beta functions with: 
                l(1) =   0
                l(2) =   0
     Q(r) pseudized with 0 coefficients 


     Mode symmetry, D_3d (-3m)  point group:


     Atomic displacements:
     There are   22 irreducible representations

     Representation     1      1 modes -  To be done

     Representation     2      1 modes -  To be done

     Representation     3      1 modes -  To be done

     Representation     4      1 modes -  To be done

     Representation     5      1 modes -  To be done

     Representation     6      1 modes -  To be done

     Representation     7      2 modes -  To be done

     Representation     8      2 modes -  To be done

     Representation     9      2 modes -  To be done

     Representation    10      2 modes -  To be done

     Representation    11      2 modes -  To be done

     Representation    12      2 modes -  To be done

     Representation    13      1 modes -  To be done

     Representation    14      1 modes -  To be done

     Representation    15      1 modes -  To be done

     Representation    16      1 modes -  To be done

     Representation    17      1 modes -  To be done

     Representation    18      2 modes -  To be done

     Representation    19      2 modes -  To be done

     Representation    20      2 modes -  To be done

     Representation    21      2 modes -  To be done

     Representation    22      2 modes -  To be done


     Message from routine init_vloc:
     Interpolation table for Vloc re-allocated

     Alpha used in Ewald sum =   2.8000
     PHONON       :     18.40s CPU     28.79s WALL



     Representation #   1 mode #   1

     Self-consistent Calculation

      iter #   1 total cpu time :    36.4 secs   av.it.:   7.3
      thresh= 1.000E-02 alpha_mix =  0.300 |ddv_scf|^2 =  1.051E-06

      iter #   2 total cpu time :    46.5 secs   av.it.:  14.4
      thresh= 1.025E-04 alpha_mix =  0.300 |ddv_scf|^2 =  2.814E-07

      iter #   3 total cpu time :    54.2 secs   av.it.:  14.1
      thresh= 5.304E-05 alpha_mix =  0.300 |ddv_scf|^2 =  1.405E-09

      iter #   4 total cpu time :    63.5 secs   av.it.:  16.0
      thresh= 3.748E-06 alpha_mix =  0.300 |ddv_scf|^2 =  9.256E-11

      iter #   5 total cpu time :    72.6 secs   av.it.:  15.9
      thresh= 9.621E-07 alpha_mix =  0.300 |ddv_scf|^2 =  8.500E-12

      iter #   6 total cpu time :    82.9 secs   av.it.:  15.8
      thresh= 2.915E-07 alpha_mix =  0.300 |ddv_scf|^2 =  1.117E-12

      iter #   7 total cpu time :    92.4 secs   av.it.:  16.1
      thresh= 1.057E-07 alpha_mix =  0.300 |ddv_scf|^2 =  1.666E-14

      iter #   8 total cpu time :   102.0 secs   av.it.:  15.1
      thresh= 1.291E-08 alpha_mix =  0.300 |ddv_scf|^2 =  6.603E-15

     End of self-consistent calculation

     Convergence has been achieved 


     Representation #   2 mode #   2

     Self-consistent Calculation

      iter #   1 total cpu time :   116.1 secs   av.it.:  11.3
      thresh= 1.000E-02 alpha_mix =  0.300 |ddv_scf|^2 =  1.480E-04

      iter #   2 total cpu time :   127.3 secs   av.it.:  14.5
      thresh= 1.216E-03 alpha_mix =  0.300 |ddv_scf|^2 =  3.976E-05

      iter #   3 total cpu time :   136.0 secs   av.it.:  14.0
      thresh= 6.306E-04 alpha_mix =  0.300 |ddv_scf|^2 =  2.339E-08

      iter #   4 total cpu time :   142.9 secs   av.it.:  16.0
      thresh= 1.529E-05 alpha_mix =  0.300 |ddv_scf|^2 =  9.361E-10

      iter #   5 total cpu time :   152.1 secs   av.it.:  16.0
      thresh= 3.059E-06 alpha_mix =  0.300 |ddv_scf|^2 =  1.594E-10

      iter #   6 total cpu time :   160.3 secs   av.it.:  16.5
      thresh= 1.262E-06 alpha_mix =  0.300 |ddv_scf|^2 =  1.671E-11

      iter #   7 total cpu time :   169.1 secs   av.it.:  16.7
      thresh= 4.087E-07 alpha_mix =  0.300 |ddv_scf|^2 =  1.532E-13

      iter #   8 total cpu time :   177.4 secs   av.it.:  15.1
      thresh= 3.915E-08 alpha_mix =  0.300 |ddv_scf|^2 =  5.137E-14

      iter #   9 total cpu time :   185.2 secs   av.it.:  16.1
      thresh= 2.267E-08 alpha_mix =  0.300 |ddv_scf|^2 =  1.413E-15

     End of self-consistent calculation

     Convergence has been achieved 


     Representation #   3 mode #   3

     Self-consistent Calculation

      iter #   1 total cpu time :   196.8 secs   av.it.:   7.5
      thresh= 1.000E-02 alpha_mix =  0.300 |ddv_scf|^2 =  2.236E-06

      iter #   2 total cpu time :   204.1 secs   av.it.:  14.4
      thresh= 1.495E-04 alpha_mix =  0.300 |ddv_scf|^2 =  6.060E-07

      iter #   3 total cpu time :   212.2 secs   av.it.:  14.1
      thresh= 7.784E-05 alpha_mix =  0.300 |ddv_scf|^2 =  1.540E-09

      iter #   4 total cpu time :   220.3 secs   av.it.:  16.2
      thresh= 3.924E-06 alpha_mix =  0.300 |ddv_scf|^2 =  4.982E-11

      iter #   5 total cpu time :   229.2 secs   av.it.:  15.2
      thresh= 7.059E-07 alpha_mix =  0.300 |ddv_scf|^2 =  1.296E-11

      iter #   6 total cpu time :   237.9 secs   av.it.:  16.2
      thresh= 3.601E-07 alpha_mix =  0.300 |ddv_scf|^2 =  3.691E-13

      iter #   7 total cpu time :   245.5 secs   av.it.:  16.2
      thresh= 6.075E-08 alpha_mix =  0.300 |ddv_scf|^2 =  8.771E-15

     End of self-consistent calculation

     Convergence has been achieved 


     Representation #   4 mode #   4

     Self-consistent Calculation

      iter #   1 total cpu time :   256.7 secs   av.it.:   7.3
      thresh= 1.000E-02 alpha_mix =  0.300 |ddv_scf|^2 =  1.125E-06

      iter #   2 total cpu time :   263.4 secs   av.it.:  14.4
      thresh= 1.061E-04 alpha_mix =  0.300 |ddv_scf|^2 =  3.024E-07

      iter #   3 total cpu time :   272.1 secs   av.it.:  14.0
      thresh= 5.500E-05 alpha_mix =  0.300 |ddv_scf|^2 =  1.252E-09

      iter #   4 total cpu time :   282.3 secs   av.it.:  16.1
      thresh= 3.538E-06 alpha_mix =  0.300 |ddv_scf|^2 =  6.624E-11

      iter #   5 total cpu time :   291.1 secs   av.it.:  15.8
      thresh= 8.139E-07 alpha_mix =  0.300 |ddv_scf|^2 =  8.009E-12

      iter #   6 total cpu time :   299.2 secs   av.it.:  16.0
      thresh= 2.830E-07 alpha_mix =  0.300 |ddv_scf|^2 =  9.933E-13

      iter #   7 total cpu time :   308.7 secs   av.it.:  15.9
      thresh= 9.966E-08 alpha_mix =  0.300 |ddv_scf|^2 =  3.396E-14

      iter #   8 total cpu time :   317.4 secs   av.it.:  15.4
      thresh= 1.843E-08 alpha_mix =  0.300 |ddv_scf|^2 =  1.004E-14

      iter #   9 total cpu time :   325.4 secs   av.it.:  16.3
      thresh= 1.002E-08 alpha_mix =  0.300 |ddv_scf|^2 =  2.364E-16

     End of self-consistent calculation

     Convergence has been achieved 


     Representation #   5 mode #   5

     Self-consistent Calculation

      iter #   1 total cpu time :   340.5 secs   av.it.:   7.4
      thresh= 1.000E-02 alpha_mix =  0.300 |ddv_scf|^2 =  1.572E-07

      iter #   2 total cpu time :   348.9 secs   av.it.:  14.6
      thresh= 3.965E-05 alpha_mix =  0.300 |ddv_scf|^2 =  2.684E-08

      iter #   3 total cpu time :   356.4 secs   av.it.:  15.4
      thresh= 1.638E-05 alpha_mix =  0.300 |ddv_scf|^2 =  4.692E-09

      iter #   4 total cpu time :   363.7 secs   av.it.:  15.2
      thresh= 6.850E-06 alpha_mix =  0.300 |ddv_scf|^2 =  1.978E-10

      iter #   5 total cpu time :   372.3 secs   av.it.:  16.3
      thresh= 1.406E-06 alpha_mix =  0.300 |ddv_scf|^2 =  2.797E-12

      iter #   6 total cpu time :   379.9 secs   av.it.:  15.0
      thresh= 1.673E-07 alpha_mix =  0.300 |ddv_scf|^2 =  7.862E-13

      iter #   7 total cpu time :   387.2 secs   av.it.:  16.0
      thresh= 8.867E-08 alpha_mix =  0.300 |ddv_scf|^2 =  2.152E-14

      iter #   8 total cpu time :   395.3 secs   av.it.:  15.3
      thresh= 1.467E-08 alpha_mix =  0.300 |ddv_scf|^2 =  6.468E-15

     End of self-consistent calculation

     Convergence has been achieved 


     Representation #   6 mode #   6

     Self-consistent Calculation

      iter #   1 total cpu time :   407.1 secs   av.it.:   5.7
      thresh= 1.000E-02 alpha_mix =  0.300 |ddv_scf|^2 =  6.745E-10

      iter #   2 total cpu time :   414.5 secs   av.it.:  15.0
      thresh= 2.597E-06 alpha_mix =  0.300 |ddv_scf|^2 =  3.174E-10

      iter #   3 total cpu time :   423.0 secs   av.it.:  15.4
      thresh= 1.782E-06 alpha_mix =  0.300 |ddv_scf|^2 =  2.276E-12

      iter #   4 total cpu time :   430.5 secs   av.it.:  15.0
      thresh= 1.509E-07 alpha_mix =  0.300 |ddv_scf|^2 =  1.763E-13

      iter #   5 total cpu time :   438.4 secs   av.it.:  15.9
      thresh= 4.199E-08 alpha_mix =  0.300 |ddv_scf|^2 =  2.129E-15

     End of self-consistent calculation

     Convergence has been achieved 


     Representation #   7 modes #   7   8

     Self-consistent Calculation

      iter #   1 total cpu time :   455.7 secs   av.it.:   7.2
      thresh= 1.000E-02 alpha_mix =  0.300 |ddv_scf|^2 =  1.086E-08

      iter #   2 total cpu time :   470.0 secs   av.it.:  16.8
      thresh= 1.042E-05 alpha_mix =  0.300 |ddv_scf|^2 =  1.745E-09

      iter #   3 total cpu time :   481.6 secs   av.it.:  17.3
      thresh= 4.177E-06 alpha_mix =  0.300 |ddv_scf|^2 =  4.307E-11

      iter #   4 total cpu time :   495.0 secs   av.it.:  17.9
      thresh= 6.563E-07 alpha_mix =  0.300 |ddv_scf|^2 =  1.761E-12

      iter #   5 total cpu time :   506.8 secs   av.it.:  17.3
      thresh= 1.327E-07 alpha_mix =  0.300 |ddv_scf|^2 =  2.172E-13

      iter #   6 total cpu time :   519.8 secs   av.it.:  17.6
      thresh= 4.660E-08 alpha_mix =  0.300 |ddv_scf|^2 =  1.072E-14

      iter #   7 total cpu time :   532.2 secs   av.it.:  18.0
      thresh= 1.035E-08 alpha_mix =  0.300 |ddv_scf|^2 =  8.383E-17

     End of self-consistent calculation

     Convergence has been achieved 


     Representation #   8 modes #   9  10

     Self-consistent Calculation

      iter #   1 total cpu time :   553.7 secs   av.it.:   7.0
      thresh= 1.000E-02 alpha_mix =  0.300 |ddv_scf|^2 =  8.884E-09

      iter #   2 total cpu time :   565.8 secs   av.it.:  16.8
      thresh= 9.425E-06 alpha_mix =  0.300 |ddv_scf|^2 =  1.544E-09

      iter #   3 total cpu time :   577.4 secs   av.it.:  17.3
      thresh= 3.929E-06 alpha_mix =  0.300 |ddv_scf|^2 =  5.091E-11

      iter #   4 total cpu time :   590.7 secs   av.it.:  17.7
      thresh= 7.135E-07 alpha_mix =  0.300 |ddv_scf|^2 =  2.329E-12

      iter #   5 total cpu time :   602.8 secs   av.it.:  17.3
      thresh= 1.526E-07 alpha_mix =  0.300 |ddv_scf|^2 =  2.135E-13

      iter #   6 total cpu time :   617.2 secs   av.it.:  17.5
      thresh= 4.621E-08 alpha_mix =  0.300 |ddv_scf|^2 =  1.014E-14

      iter #   7 total cpu time :   630.1 secs   av.it.:  17.9
      thresh= 1.007E-08 alpha_mix =  0.300 |ddv_scf|^2 =  3.979E-17

     End of self-consistent calculation

     Convergence has been achieved 


     Representation #   9 modes #  11  12

     Self-consistent Calculation

      iter #   1 total cpu time :   647.5 secs   av.it.:   7.1
      thresh= 1.000E-02 alpha_mix =  0.300 |ddv_scf|^2 =  5.712E-09

      iter #   2 total cpu time :   659.1 secs   av.it.:  16.8
      thresh= 7.558E-06 alpha_mix =  0.300 |ddv_scf|^2 =  1.133E-09

      iter #   3 total cpu time :   671.5 secs   av.it.:  17.3
      thresh= 3.366E-06 alpha_mix =  0.300 |ddv_scf|^2 =  7.273E-11

      iter #   4 total cpu time :   683.4 secs   av.it.:  18.0
      thresh= 8.528E-07 alpha_mix =  0.300 |ddv_scf|^2 =  9.618E-13

      iter #   5 total cpu time :   698.0 secs   av.it.:  17.0
      thresh= 9.807E-08 alpha_mix =  0.300 |ddv_scf|^2 =  1.945E-13

      iter #   6 total cpu time :   711.2 secs   av.it.:  17.7
      thresh= 4.410E-08 alpha_mix =  0.300 |ddv_scf|^2 =  1.248E-14

      iter #   7 total cpu time :   722.5 secs   av.it.:  17.8
      thresh= 1.117E-08 alpha_mix =  0.300 |ddv_scf|^2 =  1.297E-16

     End of self-consistent calculation

     Convergence has been achieved 


     Representation #  10 modes #  13  14

     Self-consistent Calculation

      iter #   1 total cpu time :   741.1 secs   av.it.:   7.2
      thresh= 1.000E-02 alpha_mix =  0.300 |ddv_scf|^2 =  1.100E-08

      iter #   2 total cpu time :   752.7 secs   av.it.:  16.7
      thresh= 1.049E-05 alpha_mix =  0.300 |ddv_scf|^2 =  1.782E-09

      iter #   3 total cpu time :   766.7 secs   av.it.:  17.2
      thresh= 4.222E-06 alpha_mix =  0.300 |ddv_scf|^2 =  5.005E-11

      iter #   4 total cpu time :   779.2 secs   av.it.:  17.8
      thresh= 7.074E-07 alpha_mix =  0.300 |ddv_scf|^2 =  1.435E-12

      iter #   5 total cpu time :   792.2 secs   av.it.:  16.9
      thresh= 1.198E-07 alpha_mix =  0.300 |ddv_scf|^2 =  2.241E-13

      iter #   6 total cpu time :   805.6 secs   av.it.:  17.5
      thresh= 4.734E-08 alpha_mix =  0.300 |ddv_scf|^2 =  1.495E-14

      iter #   7 total cpu time :   817.9 secs   av.it.:  17.8
      thresh= 1.223E-08 alpha_mix =  0.300 |ddv_scf|^2 =  8.423E-17

     End of self-consistent calculation

     Convergence has been achieved 


     Representation #  11 modes #  15  16

     Self-consistent Calculation

      iter #   1 total cpu time :   837.3 secs   av.it.:   7.0
      thresh= 1.000E-02 alpha_mix =  0.300 |ddv_scf|^2 =  4.529E-09

      iter #   2 total cpu time :   849.3 secs   av.it.:  17.0
      thresh= 6.730E-06 alpha_mix =  0.300 |ddv_scf|^2 =  9.160E-10

      iter #   3 total cpu time :   861.8 secs   av.it.:  17.5
      thresh= 3.027E-06 alpha_mix =  0.300 |ddv_scf|^2 =  5.250E-11

      iter #   4 total cpu time :   875.6 secs   av.it.:  18.0
      thresh= 7.246E-07 alpha_mix =  0.300 |ddv_scf|^2 =  1.938E-12

      iter #   5 total cpu time :   889.5 secs   av.it.:  17.7
      thresh= 1.392E-07 alpha_mix =  0.300 |ddv_scf|^2 =  2.118E-13

      iter #   6 total cpu time :   902.4 secs   av.it.:  17.6
      thresh= 4.602E-08 alpha_mix =  0.300 |ddv_scf|^2 =  1.794E-14

      iter #   7 total cpu time :   914.1 secs   av.it.:  18.0
      thresh= 1.339E-08 alpha_mix =  0.300 |ddv_scf|^2 =  1.132E-16

     End of self-consistent calculation

     Convergence has been achieved 


     Representation #  12 modes #  17  18

     Self-consistent Calculation

      iter #   1 total cpu time :   933.6 secs   av.it.:  10.8
      thresh= 1.000E-02 alpha_mix =  0.300 |ddv_scf|^2 =  5.542E-07

      iter #   2 total cpu time :   946.5 secs   av.it.:  16.7
      thresh= 7.445E-05 alpha_mix =  0.300 |ddv_scf|^2 =  7.576E-08

      iter #   3 total cpu time :   958.6 secs   av.it.:  17.2
      thresh= 2.752E-05 alpha_mix =  0.300 |ddv_scf|^2 =  2.800E-10

      iter #   4 total cpu time :   971.0 secs   av.it.:  18.0
      thresh= 1.673E-06 alpha_mix =  0.300 |ddv_scf|^2 =  1.318E-11

      iter #   5 total cpu time :   983.3 secs   av.it.:  17.4
      thresh= 3.630E-07 alpha_mix =  0.300 |ddv_scf|^2 =  3.144E-12

      iter #   6 total cpu time :   999.3 secs   av.it.:  17.9
      thresh= 1.773E-07 alpha_mix =  0.300 |ddv_scf|^2 =  4.574E-14

      iter #   7 total cpu time :  1012.1 secs   av.it.:  17.9
      thresh= 2.139E-08 alpha_mix =  0.300 |ddv_scf|^2 =  5.150E-16

     End of self-consistent calculation

     Convergence has been achieved 


     Representation #  13 mode #  19

     Self-consistent Calculation

      iter #   1 total cpu time :  1026.7 secs   av.it.:   6.4
      thresh= 1.000E-02 alpha_mix =  0.300 |ddv_scf|^2 =  2.465E-09

      iter #   2 total cpu time :  1033.7 secs   av.it.:  14.6
      thresh= 4.965E-06 alpha_mix =  0.300 |ddv_scf|^2 =  1.122E-09

      iter #   3 total cpu time :  1041.3 secs   av.it.:  15.4
      thresh= 3.349E-06 alpha_mix =  0.300 |ddv_scf|^2 =  3.247E-12

      iter #   4 total cpu time :  1050.6 secs   av.it.:  15.1
      thresh= 1.802E-07 alpha_mix =  0.300 |ddv_scf|^2 =  1.455E-13

      iter #   5 total cpu time :  1058.7 secs   av.it.:  14.3
      thresh= 3.815E-08 alpha_mix =  0.300 |ddv_scf|^2 =  1.283E-15

     End of self-consistent calculation

     Convergence has been achieved 


     Representation #  14 mode #  20

     Self-consistent Calculation

      iter #   1 total cpu time :  1070.7 secs   av.it.:   7.2
      thresh= 1.000E-02 alpha_mix =  0.300 |ddv_scf|^2 =  1.612E-06

      iter #   2 total cpu time :  1078.6 secs   av.it.:  14.9
      thresh= 1.270E-04 alpha_mix =  0.300 |ddv_scf|^2 =  6.611E-06

      iter #   3 total cpu time :  1087.1 secs   av.it.:  13.9
      thresh= 2.571E-04 alpha_mix =  0.300 |ddv_scf|^2 =  1.925E-07

      iter #   4 total cpu time :  1094.7 secs   av.it.:  14.1
      thresh= 4.387E-05 alpha_mix =  0.300 |ddv_scf|^2 =  4.126E-09

      iter #   5 total cpu time :  1103.8 secs   av.it.:  15.1
      thresh= 6.423E-06 alpha_mix =  0.300 |ddv_scf|^2 =  3.769E-11

      iter #   6 total cpu time :  1116.5 secs   av.it.:  14.4
      thresh= 6.139E-07 alpha_mix =  0.300 |ddv_scf|^2 =  1.796E-11

      iter #   7 total cpu time :  1124.4 secs   av.it.:  15.2
      thresh= 4.238E-07 alpha_mix =  0.300 |ddv_scf|^2 =  7.291E-13

      iter #   8 total cpu time :  1132.9 secs   av.it.:  15.3
      thresh= 8.539E-08 alpha_mix =  0.300 |ddv_scf|^2 =  8.800E-15

     End of self-consistent calculation

     Convergence has been achieved 


     Representation #  15 mode #  21

     Self-consistent Calculation

      iter #   1 total cpu time :  1144.2 secs   av.it.:   6.9
      thresh= 1.000E-02 alpha_mix =  0.300 |ddv_scf|^2 =  1.091E-06

      iter #   2 total cpu time :  1152.7 secs   av.it.:  15.0
      thresh= 1.044E-04 alpha_mix =  0.300 |ddv_scf|^2 =  5.033E-06

      iter #   3 total cpu time :  1160.9 secs   av.it.:  13.8
      thresh= 2.243E-04 alpha_mix =  0.300 |ddv_scf|^2 =  8.633E-08

      iter #   4 total cpu time :  1168.8 secs   av.it.:  14.1
      thresh= 2.938E-05 alpha_mix =  0.300 |ddv_scf|^2 =  8.944E-10

      iter #   5 total cpu time :  1177.8 secs   av.it.:  15.8
      thresh= 2.991E-06 alpha_mix =  0.300 |ddv_scf|^2 =  2.264E-11

      iter #   6 total cpu time :  1186.1 secs   av.it.:  15.0
      thresh= 4.758E-07 alpha_mix =  0.300 |ddv_scf|^2 =  7.347E-12

      iter #   7 total cpu time :  1195.4 secs   av.it.:  15.7
      thresh= 2.711E-07 alpha_mix =  0.300 |ddv_scf|^2 =  5.780E-13

      iter #   8 total cpu time :  1205.8 secs   av.it.:  15.5
      thresh= 7.602E-08 alpha_mix =  0.300 |ddv_scf|^2 =  7.428E-14

      iter #   9 total cpu time :  1215.6 secs   av.it.:  13.6
      thresh= 2.725E-08 alpha_mix =  0.300 |ddv_scf|^2 =  6.132E-15

     End of self-consistent calculation

     Convergence has been achieved 


     Representation #  16 mode #  22

     Self-consistent Calculation

      iter #   1 total cpu time :  1229.4 secs   av.it.:   7.3
      thresh= 1.000E-02 alpha_mix =  0.300 |ddv_scf|^2 =  3.883E-06

      iter #   2 total cpu time :  1237.8 secs   av.it.:  15.0
      thresh= 1.971E-04 alpha_mix =  0.300 |ddv_scf|^2 =  2.066E-05

      iter #   3 total cpu time :  1246.2 secs   av.it.:  13.7
      thresh= 4.545E-04 alpha_mix =  0.300 |ddv_scf|^2 =  1.373E-07

      iter #   4 total cpu time :  1256.3 secs   av.it.:  13.8
      thresh= 3.705E-05 alpha_mix =  0.300 |ddv_scf|^2 =  1.098E-09

      iter #   5 total cpu time :  1266.4 secs   av.it.:  15.9
      thresh= 3.314E-06 alpha_mix =  0.300 |ddv_scf|^2 =  8.849E-11

      iter #   6 total cpu time :  1274.4 secs   av.it.:  14.5
      thresh= 9.407E-07 alpha_mix =  0.300 |ddv_scf|^2 =  1.092E-11

      iter #   7 total cpu time :  1283.8 secs   av.it.:  15.8
      thresh= 3.305E-07 alpha_mix =  0.300 |ddv_scf|^2 =  1.478E-13

      iter #   8 total cpu time :  1292.0 secs   av.it.:  16.0
      thresh= 3.845E-08 alpha_mix =  0.300 |ddv_scf|^2 =  2.008E-14

      iter #   9 total cpu time :  1299.8 secs   av.it.:  15.2
      thresh= 1.417E-08 alpha_mix =  0.300 |ddv_scf|^2 =  9.804E-16

     End of self-consistent calculation

     Convergence has been achieved 


     Representation #  17 mode #  23

     Self-consistent Calculation

      iter #   1 total cpu time :  1312.4 secs   av.it.:   8.2
      thresh= 1.000E-02 alpha_mix =  0.300 |ddv_scf|^2 =  1.883E-05

      iter #   2 total cpu time :  1320.2 secs   av.it.:  15.0
      thresh= 4.340E-04 alpha_mix =  0.300 |ddv_scf|^2 =  9.886E-05

      iter #   3 total cpu time :  1328.2 secs   av.it.:  13.7
      thresh= 9.943E-04 alpha_mix =  0.300 |ddv_scf|^2 =  7.263E-07

      iter #   4 total cpu time :  1336.0 secs   av.it.:  13.5
      thresh= 8.522E-05 alpha_mix =  0.300 |ddv_scf|^2 =  5.226E-09

      iter #   5 total cpu time :  1344.4 secs   av.it.:  15.2
      thresh= 7.229E-06 alpha_mix =  0.300 |ddv_scf|^2 =  3.260E-11

      iter #   6 total cpu time :  1352.2 secs   av.it.:  15.6
      thresh= 5.709E-07 alpha_mix =  0.300 |ddv_scf|^2 =  1.039E-11

      iter #   7 total cpu time :  1360.5 secs   av.it.:  16.2
      thresh= 3.223E-07 alpha_mix =  0.300 |ddv_scf|^2 =  2.218E-13

      iter #   8 total cpu time :  1369.9 secs   av.it.:  15.3
      thresh= 4.709E-08 alpha_mix =  0.300 |ddv_scf|^2 =  1.557E-14

      iter #   9 total cpu time :  1378.7 secs   av.it.:  16.3
      thresh= 1.248E-08 alpha_mix =  0.300 |ddv_scf|^2 =  1.308E-15

     End of self-consistent calculation

     Convergence has been achieved 


     Representation #  18 modes #  24  25

     Self-consistent Calculation

      iter #   1 total cpu time :  1395.0 secs   av.it.:   6.8
      thresh= 1.000E-02 alpha_mix =  0.300 |ddv_scf|^2 =  1.511E-09

      iter #   2 total cpu time :  1407.6 secs   av.it.:  16.9
      thresh= 3.887E-06 alpha_mix =  0.300 |ddv_scf|^2 =  5.177E-10

      iter #   3 total cpu time :  1420.5 secs   av.it.:  17.8
      thresh= 2.275E-06 alpha_mix =  0.300 |ddv_scf|^2 =  1.280E-11

      iter #   4 total cpu time :  1432.6 secs   av.it.:  17.8
      thresh= 3.578E-07 alpha_mix =  0.300 |ddv_scf|^2 =  6.329E-13

      iter #   5 total cpu time :  1445.7 secs   av.it.:  17.3
      thresh= 7.956E-08 alpha_mix =  0.300 |ddv_scf|^2 =  9.946E-14

      iter #   6 total cpu time :  1458.2 secs   av.it.:  17.6
      thresh= 3.154E-08 alpha_mix =  0.300 |ddv_scf|^2 =  1.197E-14

      iter #   7 total cpu time :  1469.8 secs   av.it.:  18.0
      thresh= 1.094E-08 alpha_mix =  0.300 |ddv_scf|^2 =  1.145E-16

     End of self-consistent calculation

     Convergence has been achieved 


     Representation #  19 modes #  26  27

     Self-consistent Calculation

      iter #   1 total cpu time :  1488.2 secs   av.it.:   7.0
      thresh= 1.000E-02 alpha_mix =  0.300 |ddv_scf|^2 =  7.548E-09

      iter #   2 total cpu time :  1500.8 secs   av.it.:  16.7
      thresh= 8.688E-06 alpha_mix =  0.300 |ddv_scf|^2 =  1.447E-09

      iter #   3 total cpu time :  1513.6 secs   av.it.:  17.3
      thresh= 3.804E-06 alpha_mix =  0.300 |ddv_scf|^2 =  4.765E-11

      iter #   4 total cpu time :  1526.2 secs   av.it.:  17.7
      thresh= 6.903E-07 alpha_mix =  0.300 |ddv_scf|^2 =  1.389E-12

      iter #   5 total cpu time :  1537.9 secs   av.it.:  17.2
      thresh= 1.178E-07 alpha_mix =  0.300 |ddv_scf|^2 =  2.116E-13

      iter #   6 total cpu time :  1550.9 secs   av.it.:  17.5
      thresh= 4.600E-08 alpha_mix =  0.300 |ddv_scf|^2 =  1.120E-14

      iter #   7 total cpu time :  1562.5 secs   av.it.:  17.8
      thresh= 1.058E-08 alpha_mix =  0.300 |ddv_scf|^2 =  6.709E-17

     End of self-consistent calculation

     Convergence has been achieved 


     Representation #  20 modes #  28  29

     Self-consistent Calculation

      iter #   1 total cpu time :  1580.3 secs   av.it.:   6.5
      thresh= 1.000E-02 alpha_mix =  0.300 |ddv_scf|^2 =  1.005E-09

      iter #   2 total cpu time :  1592.5 secs   av.it.:  17.0
      thresh= 3.171E-06 alpha_mix =  0.300 |ddv_scf|^2 =  3.259E-10

      iter #   3 total cpu time :  1605.1 secs   av.it.:  17.5
      thresh= 1.805E-06 alpha_mix =  0.300 |ddv_scf|^2 =  1.852E-11

      iter #   4 total cpu time :  1617.5 secs   av.it.:  17.5
      thresh= 4.304E-07 alpha_mix =  0.300 |ddv_scf|^2 =  8.375E-13

      iter #   5 total cpu time :  1629.5 secs   av.it.:  17.2
      thresh= 9.151E-08 alpha_mix =  0.300 |ddv_scf|^2 =  1.486E-13

      iter #   6 total cpu time :  1641.8 secs   av.it.:  17.9
      thresh= 3.854E-08 alpha_mix =  0.300 |ddv_scf|^2 =  9.033E-15

     End of self-consistent calculation

     Convergence has been achieved 


     Representation #  21 modes #  30  31

     Self-consistent Calculation

      iter #   1 total cpu time :  1657.6 secs   av.it.:   7.4
      thresh= 1.000E-02 alpha_mix =  0.300 |ddv_scf|^2 =  1.336E-08

      iter #   2 total cpu time :  1670.2 secs   av.it.:  16.8
      thresh= 1.156E-05 alpha_mix =  0.300 |ddv_scf|^2 =  2.344E-09

      iter #   3 total cpu time :  1682.1 secs   av.it.:  17.5
      thresh= 4.842E-06 alpha_mix =  0.300 |ddv_scf|^2 =  4.613E-11

      iter #   4 total cpu time :  1694.9 secs   av.it.:  18.1
      thresh= 6.792E-07 alpha_mix =  0.300 |ddv_scf|^2 =  8.225E-13

      iter #   5 total cpu time :  1708.9 secs   av.it.:  17.1
      thresh= 9.069E-08 alpha_mix =  0.300 |ddv_scf|^2 =  2.216E-13

      iter #   6 total cpu time :  1721.2 secs   av.it.:  17.7
      thresh= 4.708E-08 alpha_mix =  0.300 |ddv_scf|^2 =  8.133E-15

     End of self-consistent calculation

     Convergence has been achieved 


     Representation #  22 modes #  32  33

     Self-consistent Calculation

      iter #   1 total cpu time :  1740.4 secs   av.it.:   7.1
      thresh= 1.000E-02 alpha_mix =  0.300 |ddv_scf|^2 =  6.492E-09

      iter #   2 total cpu time :  1752.1 secs   av.it.:  16.8
      thresh= 8.057E-06 alpha_mix =  0.300 |ddv_scf|^2 =  1.446E-09

      iter #   3 total cpu time :  1764.8 secs   av.it.:  17.4
      thresh= 3.803E-06 alpha_mix =  0.300 |ddv_scf|^2 =  6.445E-11

      iter #   4 total cpu time :  1777.7 secs   av.it.:  17.7
      thresh= 8.028E-07 alpha_mix =  0.300 |ddv_scf|^2 =  2.049E-12

      iter #   5 total cpu time :  1791.0 secs   av.it.:  17.6
      thresh= 1.431E-07 alpha_mix =  0.300 |ddv_scf|^2 =  1.458E-13

      iter #   6 total cpu time :  1804.1 secs   av.it.:  17.5
      thresh= 3.818E-08 alpha_mix =  0.300 |ddv_scf|^2 =  1.643E-14

      iter #   7 total cpu time :  1816.6 secs   av.it.:  17.8
      thresh= 1.282E-08 alpha_mix =  0.300 |ddv_scf|^2 =  1.267E-16

     End of self-consistent calculation

     Convergence has been achieved 
 
     Number of q in the star =    4
     List of q in the star:
          1  -0.353553391  -0.353553391   0.353553391
          2  -0.353553391   0.353553391   0.353553391
          3  -0.353553391  -0.353553391  -0.353553391
          4  -0.353553391   0.353553391  -0.353553391

     Diagonalizing the dynamical matrix

     q = (   -0.353553391  -0.353553391   0.353553391 ) 

 **************************************************************************
     freq (    1) =       6.612713 [THz] =     220.576371 [cm-1]
     freq (    2) =       6.612713 [THz] =     220.576371 [cm-1]
     freq (    3) =       9.452649 [THz] =     315.306440 [cm-1]
     freq (    4) =      24.555758 [THz] =     819.091929 [cm-1]
     freq (    5) =      27.068836 [THz] =     902.919163 [cm-1]
     freq (    6) =      27.068836 [THz] =     902.919163 [cm-1]
     freq (    7) =      27.195466 [THz] =     907.143087 [cm-1]
     freq (    8) =      27.195466 [THz] =     907.143087 [cm-1]
     freq (    9) =      34.851215 [THz] =    1162.511400 [cm-1]
     freq (   10) =      34.851215 [THz] =    1162.511400 [cm-1]
     freq (   11) =      35.950366 [THz] =    1199.175126 [cm-1]
     freq (   12) =      38.259960 [THz] =    1276.214886 [cm-1]
     freq (   13) =      39.638876 [THz] =    1322.210578 [cm-1]
     freq (   14) =      39.638876 [THz] =    1322.210578 [cm-1]
     freq (   15) =      43.326264 [THz] =    1445.208613 [cm-1]
     freq (   16) =      43.326264 [THz] =    1445.208613 [cm-1]
     freq (   17) =      44.028505 [THz] =    1468.632846 [cm-1]
     freq (   18) =      44.053117 [THz] =    1469.453800 [cm-1]
     freq (   19) =      44.053117 [THz] =    1469.453800 [cm-1]
     freq (   20) =      46.094927 [THz] =    1537.561254 [cm-1]
     freq (   21) =      46.426594 [THz] =    1548.624477 [cm-1]
     freq (   22) =      48.616749 [THz] =    1621.680198 [cm-1]
     freq (   23) =      48.616749 [THz] =    1621.680198 [cm-1]
     freq (   24) =      51.219789 [THz] =    1708.508257 [cm-1]
     freq (   25) =      51.979615 [THz] =    1733.853338 [cm-1]
     freq (   26) =      51.979615 [THz] =    1733.853338 [cm-1]
     freq (   27) =      53.142340 [THz] =    1772.637649 [cm-1]
     freq (   28) =      54.093198 [THz] =    1804.354880 [cm-1]
     freq (   29) =      54.093198 [THz] =    1804.354880 [cm-1]
     freq (   30) =      55.502999 [THz] =    1851.380752 [cm-1]
     freq (   31) =      55.502999 [THz] =    1851.380752 [cm-1]
     freq (   32) =      62.237445 [THz] =    2076.017701 [cm-1]
     freq (   33) =      65.695017 [THz] =    2191.349902 [cm-1]
 **************************************************************************

     Mode symmetry, D_3d (-3m)  point group:

     freq (   1-   2) =        220.6  [cm-1]   --> E_g  L_3           
     freq (   3-   3) =        315.3  [cm-1]   --> A_1g L_1           
     freq (   4-   4) =        819.1  [cm-1]   --> A_2u L_2'          
     freq (   5-   6) =        902.9  [cm-1]   --> E_g  L_3           
     freq (   7-   8) =        907.1  [cm-1]   --> E_u  L_3'          
     freq (   9-  10) =       1162.5  [cm-1]   --> E_g  L_3           
     freq (  11-  11) =       1199.2  [cm-1]   --> A_1g L_1           
     freq (  12-  12) =       1276.2  [cm-1]   --> A_2g L_2           
     freq (  13-  14) =       1322.2  [cm-1]   --> E_u  L_3'          
     freq (  15-  16) =       1445.2  [cm-1]   --> E_g  L_3           
     freq (  17-  17) =       1468.6  [cm-1]   --> A_1u L_1'          
     freq (  18-  19) =       1469.5  [cm-1]   --> E_u  L_3'          
     freq (  20-  20) =       1537.6  [cm-1]   --> A_2u L_2'          
     freq (  21-  21) =       1548.6  [cm-1]   --> A_1g L_1           
     freq (  22-  23) =       1621.7  [cm-1]   --> E_g  L_3           
     freq (  24-  24) =       1708.5  [cm-1]   --> A_1g L_1           
     freq (  25-  26) =       1733.9  [cm-1]   --> E_u  L_3'          
     freq (  27-  27) =       1772.6  [cm-1]   --> A_2u L_2'          
     freq (  28-  29) =       1804.4  [cm-1]   --> E_u  L_3'          
     freq (  30-  31) =       1851.4  [cm-1]   --> E_g  L_3           
     freq (  32-  32) =       2076.0  [cm-1]   --> A_2u L_2'          
     freq (  33-  33) =       2191.3  [cm-1]   --> A_1g L_1           
     Electron-phonon interaction  ...

     Gaussian Broadening:   0.005 Ry, ngauss=   0
     DOS =  4.794684 states/spin/Ry/Unit Cell at Ef= 22.110855 eV
     lambda(    1)=  0.0000   gamma=    0.00 GHz
     lambda(    2)=  0.0000   gamma=    0.00 GHz
     lambda(    3)=  0.0000   gamma=    0.00 GHz
     lambda(    4)=  0.0000   gamma=    0.00 GHz
     lambda(    5)=  0.0000   gamma=    0.00 GHz
     lambda(    6)=  0.0000   gamma=    0.00 GHz
     lambda(    7)=  0.0000   gamma=    0.00 GHz
     lambda(    8)=  0.0000   gamma=    0.00 GHz
     lambda(    9)=  0.0000   gamma=    0.00 GHz
     lambda(   10)=  0.0000   gamma=    0.00 GHz
     lambda(   11)=  0.0000   gamma=    0.00 GHz
     lambda(   12)=  0.0000   gamma=    0.00 GHz
     lambda(   13)=  0.0000   gamma=    0.00 GHz
     lambda(   14)=  0.0000   gamma=    0.00 GHz
     lambda(   15)=  0.0000   gamma=    0.00 GHz
     lambda(   16)=  0.0000   gamma=    0.00 GHz
     lambda(   17)=  0.0000   gamma=    0.00 GHz
     lambda(   18)=  0.0000   gamma=    0.00 GHz
     lambda(   19)=  0.0000   gamma=    0.00 GHz
     lambda(   20)=  0.0000   gamma=    0.00 GHz
     lambda(   21)=  0.0000   gamma=    0.00 GHz
     lambda(   22)=  0.0000   gamma=    0.00 GHz
     lambda(   23)=  0.0000   gamma=    0.00 GHz
     lambda(   24)=  0.0000   gamma=    0.00 GHz
     lambda(   25)=  0.0000   gamma=    0.00 GHz
     lambda(   26)=  0.0000   gamma=    0.00 GHz
     lambda(   27)=  0.0000   gamma=    0.00 GHz
     lambda(   28)=  0.0000   gamma=    0.00 GHz
     lambda(   29)=  0.0000   gamma=    0.00 GHz
     lambda(   30)=  0.0000   gamma=    0.00 GHz
     lambda(   31)=  0.0000   gamma=    0.00 GHz
     lambda(   32)=  0.0000   gamma=    0.00 GHz
     lambda(   33)=  0.0000   gamma=    0.00 GHz
     Gaussian Broadening:   0.010 Ry, ngauss=   0
     DOS =  4.491154 states/spin/Ry/Unit Cell at Ef= 22.118081 eV
     lambda(    1)=  0.0000   gamma=    0.00 GHz
     lambda(    2)=  0.0000   gamma=    0.01 GHz
     lambda(    3)=  0.0000   gamma=    0.01 GHz
     lambda(    4)=  0.0003   gamma=    0.73 GHz
     lambda(    5)=  0.0001   gamma=    0.37 GHz
     lambda(    6)=  0.0001   gamma=    0.38 GHz
     lambda(    7)=  0.0003   gamma=    0.84 GHz
     lambda(    8)=  0.0003   gamma=    0.85 GHz
     lambda(    9)=  0.0002   gamma=    1.19 GHz
     lambda(   10)=  0.0002   gamma=    1.17 GHz
     lambda(   11)=  0.0000   gamma=    0.18 GHz
     lambda(   12)=  0.0000   gamma=    0.10 GHz
     lambda(   13)=  0.0000   gamma=    0.27 GHz
     lambda(   14)=  0.0000   gamma=    0.26 GHz
     lambda(   15)=  0.0003   gamma=    2.07 GHz
     lambda(   16)=  0.0003   gamma=    2.07 GHz
     lambda(   17)=  0.0001   gamma=    0.97 GHz
     lambda(   18)=  0.0001   gamma=    0.43 GHz
     lambda(   19)=  0.0000   gamma=    0.37 GHz
     lambda(   20)=  0.0001   gamma=    0.47 GHz
     lambda(   21)=  0.0000   gamma=    0.30 GHz
     lambda(   22)=  0.0001   gamma=    1.00 GHz
     lambda(   23)=  0.0001   gamma=    0.92 GHz
     lambda(   24)=  0.0001   gamma=    1.02 GHz
     lambda(   25)=  0.0000   gamma=    0.40 GHz
     lambda(   26)=  0.0000   gamma=    0.40 GHz
     lambda(   27)=  0.0001   gamma=    1.70 GHz
     lambda(   28)=  0.0003   gamma=    3.38 GHz
     lambda(   29)=  0.0003   gamma=    3.35 GHz
     lambda(   30)=  0.0001   gamma=    0.92 GHz
     lambda(   31)=  0.0001   gamma=    0.93 GHz
     lambda(   32)=  0.0001   gamma=    1.16 GHz
     lambda(   33)=  0.0000   gamma=    0.84 GHz
     Gaussian Broadening:   0.015 Ry, ngauss=   0
     DOS =  4.448291 states/spin/Ry/Unit Cell at Ef= 22.124358 eV
     lambda(    1)=  0.0003   gamma=    0.06 GHz
     lambda(    2)=  0.0004   gamma=    0.07 GHz
     lambda(    3)=  0.0004   gamma=    0.15 GHz
     lambda(    4)=  0.0043   gamma=   11.07 GHz
     lambda(    5)=  0.0013   gamma=    4.15 GHz
     lambda(    6)=  0.0014   gamma=    4.37 GHz
     lambda(    7)=  0.0031   gamma=    9.73 GHz
     lambda(    8)=  0.0031   gamma=    9.72 GHz
     lambda(    9)=  0.0026   gamma=   13.26 GHz
     lambda(   10)=  0.0023   gamma=   12.10 GHz
     lambda(   11)=  0.0006   gamma=    3.08 GHz
     lambda(   12)=  0.0002   gamma=    1.10 GHz
     lambda(   13)=  0.0006   gamma=    3.72 GHz
     lambda(   14)=  0.0005   gamma=    3.58 GHz
     lambda(   15)=  0.0028   gamma=   22.00 GHz
     lambda(   16)=  0.0028   gamma=   22.00 GHz
     lambda(   17)=  0.0016   gamma=   12.90 GHz
     lambda(   18)=  0.0007   gamma=    5.49 GHz
     lambda(   19)=  0.0006   gamma=    5.01 GHz
     lambda(   20)=  0.0008   gamma=    6.79 GHz
     lambda(   21)=  0.0005   gamma=    4.67 GHz
     lambda(   22)=  0.0009   gamma=    9.16 GHz
     lambda(   23)=  0.0009   gamma=    9.07 GHz
     lambda(   24)=  0.0014   gamma=   15.21 GHz
     lambda(   25)=  0.0004   gamma=    5.15 GHz
     lambda(   26)=  0.0004   gamma=    5.06 GHz
     lambda(   27)=  0.0022   gamma=   26.79 GHz
     lambda(   28)=  0.0030   gamma=   37.06 GHz
     lambda(   29)=  0.0029   gamma=   36.07 GHz
     lambda(   30)=  0.0008   gamma=   10.85 GHz
     lambda(   31)=  0.0008   gamma=   10.84 GHz
     lambda(   32)=  0.0010   gamma=   17.01 GHz
     lambda(   33)=  0.0007   gamma=   12.24 GHz
     Gaussian Broadening:   0.020 Ry, ngauss=   0
     DOS =  4.528357 states/spin/Ry/Unit Cell at Ef= 22.128042 eV
     lambda(    1)=  0.0008   gamma=    0.15 GHz
     lambda(    2)=  0.0009   gamma=    0.17 GHz
     lambda(    3)=  0.0011   gamma=    0.44 GHz
     lambda(    4)=  0.0113   gamma=   29.35 GHz
     lambda(    5)=  0.0030   gamma=    9.52 GHz
     lambda(    6)=  0.0031   gamma=    9.86 GHz
     lambda(    7)=  0.0070   gamma=   22.47 GHz
     lambda(    8)=  0.0070   gamma=   22.46 GHz
     lambda(    9)=  0.0055   gamma=   28.97 GHz
     lambda(   10)=  0.0051   gamma=   26.66 GHz
     lambda(   11)=  0.0016   gamma=    8.70 GHz
     lambda(   12)=  0.0005   gamma=    2.87 GHz
     lambda(   13)=  0.0014   gamma=    9.39 GHz
     lambda(   14)=  0.0013   gamma=    9.01 GHz
     lambda(   15)=  0.0061   gamma=   49.16 GHz
     lambda(   16)=  0.0061   gamma=   49.17 GHz
     lambda(   17)=  0.0035   gamma=   29.47 GHz
     lambda(   18)=  0.0015   gamma=   12.88 GHz
     lambda(   19)=  0.0014   gamma=   11.85 GHz
     lambda(   20)=  0.0018   gamma=   16.32 GHz
     lambda(   21)=  0.0013   gamma=   12.03 GHz
     lambda(   22)=  0.0020   gamma=   20.61 GHz
     lambda(   23)=  0.0020   gamma=   20.64 GHz
     lambda(   24)=  0.0033   gamma=   36.90 GHz
     lambda(   25)=  0.0011   gamma=   12.36 GHz
     lambda(   26)=  0.0010   gamma=   12.08 GHz
     lambda(   27)=  0.0054   gamma=   66.09 GHz
     lambda(   28)=  0.0066   gamma=   83.43 GHz
     lambda(   29)=  0.0064   gamma=   81.41 GHz
     lambda(   30)=  0.0020   gamma=   26.56 GHz
     lambda(   31)=  0.0020   gamma=   26.53 GHz
     lambda(   32)=  0.0027   gamma=   45.20 GHz
     lambda(   33)=  0.0016   gamma=   30.61 GHz
     Gaussian Broadening:   0.025 Ry, ngauss=   0
     DOS =  4.634996 states/spin/Ry/Unit Cell at Ef= 22.128678 eV
     lambda(    1)=  0.0012   gamma=    0.23 GHz
     lambda(    2)=  0.0013   gamma=    0.26 GHz
     lambda(    3)=  0.0017   gamma=    0.68 GHz
     lambda(    4)=  0.0164   gamma=   43.77 GHz
     lambda(    5)=  0.0041   gamma=   13.41 GHz
     lambda(    6)=  0.0043   gamma=   13.79 GHz
     lambda(    7)=  0.0099   gamma=   32.35 GHz
     lambda(    8)=  0.0099   gamma=   32.35 GHz
     lambda(    9)=  0.0074   gamma=   39.56 GHz
     lambda(   10)=  0.0069   gamma=   37.02 GHz
     lambda(   11)=  0.0028   gamma=   16.06 GHz
     lambda(   12)=  0.0007   gamma=    4.63 GHz
     lambda(   13)=  0.0021   gamma=   14.91 GHz
     lambda(   14)=  0.0021   gamma=   14.33 GHz
     lambda(   15)=  0.0083   gamma=   68.84 GHz
     lambda(   16)=  0.0083   gamma=   68.85 GHz
     lambda(   17)=  0.0048   gamma=   40.93 GHz
     lambda(   18)=  0.0022   gamma=   18.47 GHz
     lambda(   19)=  0.0020   gamma=   17.22 GHz
     lambda(   20)=  0.0027   gamma=   24.93 GHz
     lambda(   21)=  0.0019   gamma=   18.60 GHz
     lambda(   22)=  0.0029   gamma=   30.11 GHz
     lambda(   23)=  0.0029   gamma=   30.11 GHz
     lambda(   24)=  0.0046   gamma=   53.21 GHz
     lambda(   25)=  0.0016   gamma=   18.63 GHz
     lambda(   26)=  0.0015   gamma=   18.18 GHz
     lambda(   27)=  0.0080   gamma=  100.29 GHz
     lambda(   28)=  0.0090   gamma=  117.12 GHz
     lambda(   29)=  0.0089   gamma=  114.66 GHz
     lambda(   30)=  0.0029   gamma=   39.43 GHz
     lambda(   31)=  0.0029   gamma=   39.43 GHz
     lambda(   32)=  0.0039   gamma=   66.29 GHz
     lambda(   33)=  0.0024   gamma=   45.15 GHz
     Gaussian Broadening:   0.030 Ry, ngauss=   0
     DOS =  4.755068 states/spin/Ry/Unit Cell at Ef= 22.126761 eV
     lambda(    1)=  0.0015   gamma=    0.29 GHz
     lambda(    2)=  0.0016   gamma=    0.33 GHz
     lambda(    3)=  0.0021   gamma=    0.84 GHz
     lambda(    4)=  0.0192   gamma=   52.64 GHz
     lambda(    5)=  0.0048   gamma=   15.92 GHz
     lambda(    6)=  0.0049   gamma=   16.31 GHz
     lambda(    7)=  0.0118   gamma=   39.67 GHz
     lambda(    8)=  0.0118   gamma=   39.68 GHz
     lambda(    9)=  0.0084   gamma=   46.41 GHz
     lambda(   10)=  0.0080   gamma=   44.12 GHz
     lambda(   11)=  0.0044   gamma=   25.61 GHz
     lambda(   12)=  0.0010   gamma=    6.33 GHz
     lambda(   13)=  0.0029   gamma=   20.35 GHz
     lambda(   14)=  0.0028   gamma=   19.69 GHz
     lambda(   15)=  0.0096   gamma=   81.96 GHz
     lambda(   16)=  0.0096   gamma=   81.97 GHz
     lambda(   17)=  0.0056   gamma=   49.38 GHz
     lambda(   18)=  0.0026   gamma=   22.85 GHz
     lambda(   19)=  0.0025   gamma=   21.63 GHz
     lambda(   20)=  0.0035   gamma=   33.89 GHz
     lambda(   21)=  0.0026   gamma=   25.03 GHz
     lambda(   22)=  0.0035   gamma=   38.08 GHz
     lambda(   23)=  0.0035   gamma=   38.01 GHz
     lambda(   24)=  0.0055   gamma=   64.95 GHz
     lambda(   25)=  0.0020   gamma=   24.24 GHz
     lambda(   26)=  0.0019   gamma=   23.70 GHz
     lambda(   27)=  0.0103   gamma=  132.26 GHz
     lambda(   28)=  0.0105   gamma=  139.71 GHz
     lambda(   29)=  0.0103   gamma=  137.27 GHz
     lambda(   30)=  0.0035   gamma=   48.87 GHz
     lambda(   31)=  0.0035   gamma=   48.89 GHz
     lambda(   32)=  0.0044   gamma=   76.83 GHz
     lambda(   33)=  0.0028   gamma=   55.74 GHz
     Gaussian Broadening:   0.035 Ry, ngauss=   0
     DOS =  4.903732 states/spin/Ry/Unit Cell at Ef= 22.122264 eV
     lambda(    1)=  0.0018   gamma=    0.37 GHz
     lambda(    2)=  0.0020   gamma=    0.40 GHz
     lambda(    3)=  0.0024   gamma=    0.99 GHz
     lambda(    4)=  0.0208   gamma=   58.63 GHz
     lambda(    5)=  0.0052   gamma=   17.69 GHz
     lambda(    6)=  0.0053   gamma=   18.08 GHz
     lambda(    7)=  0.0132   gamma=   45.87 GHz
     lambda(    8)=  0.0133   gamma=   45.90 GHz
     lambda(    9)=  0.0092   gamma=   52.13 GHz
     lambda(   10)=  0.0088   gamma=   50.29 GHz
     lambda(   11)=  0.0061   gamma=   36.78 GHz
     lambda(   12)=  0.0012   gamma=    8.30 GHz
     lambda(   13)=  0.0035   gamma=   26.01 GHz
     lambda(   14)=  0.0034   gamma=   25.34 GHz
     lambda(   15)=  0.0104   gamma=   91.79 GHz
     lambda(   16)=  0.0104   gamma=   91.80 GHz
     lambda(   17)=  0.0064   gamma=   58.14 GHz
     lambda(   18)=  0.0030   gamma=   27.24 GHz
     lambda(   19)=  0.0029   gamma=   26.14 GHz
     lambda(   20)=  0.0044   gamma=   44.03 GHz
     lambda(   21)=  0.0033   gamma=   32.87 GHz
     lambda(   22)=  0.0042   gamma=   46.33 GHz
     lambda(   23)=  0.0042   gamma=   46.17 GHz
     lambda(   24)=  0.0062   gamma=   75.83 GHz
     lambda(   25)=  0.0024   gamma=   29.83 GHz
     lambda(   26)=  0.0023   gamma=   29.26 GHz
     lambda(   27)=  0.0124   gamma=  164.26 GHz
     lambda(   28)=  0.0114   gamma=  156.70 GHz
     lambda(   29)=  0.0113   gamma=  154.52 GHz
     lambda(   30)=  0.0040   gamma=   56.98 GHz
     lambda(   31)=  0.0040   gamma=   57.02 GHz
     lambda(   32)=  0.0045   gamma=   81.45 GHz
     lambda(   33)=  0.0032   gamma=   64.68 GHz
     Gaussian Broadening:   0.040 Ry, ngauss=   0
     DOS =  5.088867 states/spin/Ry/Unit Cell at Ef= 22.114955 eV
     lambda(    1)=  0.0022   gamma=    0.48 GHz
     lambda(    2)=  0.0024   gamma=    0.50 GHz
     lambda(    3)=  0.0027   gamma=    1.17 GHz
     lambda(    4)=  0.0218   gamma=   63.75 GHz
     lambda(    5)=  0.0054   gamma=   19.22 GHz
     lambda(    6)=  0.0055   gamma=   19.57 GHz
     lambda(    7)=  0.0144   gamma=   51.91 GHz
     lambda(    8)=  0.0145   gamma=   51.96 GHz
     lambda(    9)=  0.0099   gamma=   58.56 GHz
     lambda(   10)=  0.0097   gamma=   57.23 GHz
     lambda(   11)=  0.0077   gamma=   48.49 GHz
     lambda(   12)=  0.0015   gamma=   10.83 GHz
     lambda(   13)=  0.0042   gamma=   32.23 GHz
     lambda(   14)=  0.0041   gamma=   31.58 GHz
     lambda(   15)=  0.0110   gamma=  100.56 GHz
     lambda(   16)=  0.0110   gamma=  100.57 GHz
     lambda(   17)=  0.0073   gamma=   68.86 GHz
     lambda(   18)=  0.0034   gamma=   32.51 GHz
     lambda(   19)=  0.0033   gamma=   31.49 GHz
     lambda(   20)=  0.0054   gamma=   55.29 GHz
     lambda(   21)=  0.0041   gamma=   42.87 GHz
     lambda(   22)=  0.0049   gamma=   56.28 GHz
     lambda(   23)=  0.0049   gamma=   56.03 GHz
     lambda(   24)=  0.0069   gamma=   88.34 GHz
     lambda(   25)=  0.0027   gamma=   35.92 GHz
     lambda(   26)=  0.0027   gamma=   35.36 GHz
     lambda(   27)=  0.0143   gamma=  195.59 GHz
     lambda(   28)=  0.0121   gamma=  171.36 GHz
     lambda(   29)=  0.0119   gamma=  169.53 GHz
     lambda(   30)=  0.0044   gamma=   65.53 GHz
     lambda(   31)=  0.0044   gamma=   65.60 GHz
     lambda(   32)=  0.0045   gamma=   84.13 GHz
     lambda(   33)=  0.0035   gamma=   73.19 GHz
     Gaussian Broadening:   0.045 Ry, ngauss=   0
     DOS =  5.309480 states/spin/Ry/Unit Cell at Ef= 22.104685 eV
     lambda(    1)=  0.0028   gamma=    0.62 GHz
     lambda(    2)=  0.0029   gamma=    0.65 GHz
     lambda(    3)=  0.0031   gamma=    1.40 GHz
     lambda(    4)=  0.0225   gamma=   68.90 GHz
     lambda(    5)=  0.0056   gamma=   20.82 GHz
     lambda(    6)=  0.0057   gamma=   21.12 GHz
     lambda(    7)=  0.0155   gamma=   58.23 GHz
     lambda(    8)=  0.0155   gamma=   58.30 GHz
     lambda(    9)=  0.0109   gamma=   66.92 GHz
     lambda(   10)=  0.0107   gamma=   66.12 GHz
     lambda(   11)=  0.0092   gamma=   60.12 GHz
     lambda(   12)=  0.0019   gamma=   14.13 GHz
     lambda(   13)=  0.0050   gamma=   39.50 GHz
     lambda(   14)=  0.0049   gamma=   38.87 GHz
     lambda(   15)=  0.0115   gamma=  109.61 GHz
     lambda(   16)=  0.0115   gamma=  109.61 GHz
     lambda(   17)=  0.0084   gamma=   82.08 GHz
     lambda(   18)=  0.0040   gamma=   39.11 GHz
     lambda(   19)=  0.0039   gamma=   38.15 GHz
     lambda(   20)=  0.0063   gamma=   67.56 GHz
     lambda(   21)=  0.0051   gamma=   55.25 GHz
     lambda(   22)=  0.0057   gamma=   68.83 GHz
     lambda(   23)=  0.0057   gamma=   68.50 GHz
     lambda(   24)=  0.0078   gamma=  103.65 GHz
     lambda(   25)=  0.0031   gamma=   42.91 GHz
     lambda(   26)=  0.0031   gamma=   42.39 GHz
     lambda(   27)=  0.0157   gamma=  225.31 GHz
     lambda(   28)=  0.0125   gamma=  185.17 GHz
     lambda(   29)=  0.0124   gamma=  183.67 GHz
     lambda(   30)=  0.0048   gamma=   75.69 GHz
     lambda(   31)=  0.0049   gamma=   75.79 GHz
     lambda(   32)=  0.0044   gamma=   86.85 GHz
     lambda(   33)=  0.0037   gamma=   81.64 GHz
     Gaussian Broadening:   0.050 Ry, ngauss=   0
     DOS =  5.560451 states/spin/Ry/Unit Cell at Ef= 22.091444 eV
     lambda(    1)=  0.0036   gamma=    0.83 GHz
     lambda(    2)=  0.0037   gamma=    0.85 GHz
     lambda(    3)=  0.0036   gamma=    1.70 GHz
     lambda(    4)=  0.0232   gamma=   74.29 GHz
     lambda(    5)=  0.0058   gamma=   22.74 GHz
     lambda(    6)=  0.0059   gamma=   22.98 GHz
     lambda(    7)=  0.0165   gamma=   64.98 GHz
     lambda(    8)=  0.0166   gamma=   65.06 GHz
     lambda(    9)=  0.0121   gamma=   78.07 GHz
     lambda(   10)=  0.0121   gamma=   77.73 GHz
     lambda(   11)=  0.0104   gamma=   71.52 GHz
     lambda(   12)=  0.0024   gamma=   18.43 GHz
     lambda(   13)=  0.0058   gamma=   48.20 GHz
     lambda(   14)=  0.0057   gamma=   47.58 GHz
     lambda(   15)=  0.0120   gamma=  119.76 GHz
     lambda(   16)=  0.0120   gamma=  119.76 GHz
     lambda(   17)=  0.0095   gamma=   97.95 GHz
     lambda(   18)=  0.0046   gamma=   47.26 GHz
     lambda(   19)=  0.0045   gamma=   46.33 GHz
     lambda(   20)=  0.0072   gamma=   80.84 GHz
     lambda(   21)=  0.0061   gamma=   70.02 GHz
     lambda(   22)=  0.0067   gamma=   84.38 GHz
     lambda(   23)=  0.0067   gamma=   84.01 GHz
     lambda(   24)=  0.0088   gamma=  121.97 GHz
     lambda(   25)=  0.0036   gamma=   51.09 GHz
     lambda(   26)=  0.0035   gamma=   50.60 GHz
     lambda(   27)=  0.0169   gamma=  253.04 GHz
     lambda(   28)=  0.0128   gamma=  198.72 GHz
     lambda(   29)=  0.0127   gamma=  197.50 GHz
     lambda(   30)=  0.0054   gamma=   88.22 GHz
     lambda(   31)=  0.0054   gamma=   88.36 GHz
     lambda(   32)=  0.0044   gamma=   90.29 GHz
     lambda(   33)=  0.0039   gamma=   90.12 GHz
 
 
     Number of q in the star =    4
     List of q in the star:
          1  -0.353553391  -0.353553391   0.353553391
          2  -0.353553391   0.353553391   0.353553391
          3  -0.353553391  -0.353553391  -0.353553391
          4  -0.353553391   0.353553391  -0.353553391
 
     init_run     :      0.41s CPU      0.91s WALL (       1 calls)
     electrons    :      6.17s CPU      7.64s WALL (       1 calls)

     Called by init_run:
     wfcinit      :      0.00s CPU      0.05s WALL (       1 calls)
     potinit      :      0.20s CPU      0.60s WALL (       1 calls)
     hinit0       :      0.10s CPU      0.11s WALL (       1 calls)

     Called by electrons:
     c_bands      :      6.16s CPU      7.63s WALL (       1 calls)
     v_of_rho     :      0.02s CPU      0.03s WALL (       2 calls)
     newd         :      0.04s CPU      0.10s WALL (       2 calls)
     PAW_pot      :      0.37s CPU      0.45s WALL (       2 calls)

     Called by c_bands:
     init_us_2    :      1.01s CPU      1.15s WALL (   11184 calls)
     cegterg      :      3.63s CPU      3.84s WALL (     125 calls)

     Called by *egterg:
     cdiaghg      :      1.12s CPU      1.22s WALL (    1995 calls)
     h_psi        :    315.92s CPU    387.33s WALL (  240797 calls)
     s_psi        :     10.89s CPU     11.83s WALL (  490802 calls)
     g_psi        :      0.01s CPU      0.01s WALL (    1899 calls)

     Called by h_psi:
     h_psi:calbec :      7.60s CPU      8.24s WALL (  240797 calls)
     vloc_psi     :    300.74s CPU    370.87s WALL (  240797 calls)
     add_vuspsi   :      5.63s CPU      6.13s WALL (  240797 calls)

     General routines
     calbec       :     31.76s CPU     33.39s WALL (  510722 calls)
     fft          :      1.71s CPU      2.41s WALL (    5267 calls)
     ffts         :     23.93s CPU     37.95s WALL (    2850 calls)
     fftw         :    430.86s CPU    587.49s WALL ( 4655900 calls)
     interpolate  :      0.74s CPU      1.07s WALL (     507 calls)
     davcio       :      5.21s CPU    301.22s WALL (   58423 calls)
 
     Parallel routines
 
     PHONON       :  19m41.40s CPU  30m53.85s WALL

     INITIALIZATION: 
     phq_setup    :      0.03s CPU      0.08s WALL (       1 calls)
     phq_init     :     11.04s CPU     13.42s WALL (       1 calls)
 
     phq_init     :     11.04s CPU     13.42s WALL (       1 calls)
     set_drhoc    :      0.00s CPU      0.00s WALL (       3 calls)
     init_vloc    :      0.01s CPU      0.03s WALL (       2 calls)
     init_us_1    :      0.15s CPU      0.26s WALL (       2 calls)
     init_us_2    :      1.01s CPU      1.15s WALL (   11184 calls)
     newd         :      0.04s CPU      0.10s WALL (       2 calls)
     dvanqq       :      1.64s CPU      1.65s WALL (       1 calls)
     drho         :      6.91s CPU      8.65s WALL (       1 calls)
     drhous       :      2.46s CPU      2.80s WALL (       1 calls)
     nldyntot     :      0.19s CPU      0.19s WALL (       1 calls)
 
     DYNAMICAL MATRIX:
     dynmat0      :      1.26s CPU      1.59s WALL (       1 calls)
     dynmat_us    :      1.21s CPU      1.52s WALL (       1 calls)
     addusdynmat  :      0.00s CPU      0.00s WALL (       1 calls)
     d2ionq       :      0.04s CPU      0.04s WALL (       1 calls)
     dynmatcc     :      0.01s CPU      0.01s WALL (       1 calls)
     phqscf       :   1135.72s CPU   1796.91s WALL (       1 calls)
     dynmatrix    :      0.24s CPU      0.27s WALL (       1 calls)
 
     phqscf       :   1135.72s CPU   1796.91s WALL (       1 calls)
     solve_linter :   1119.09s CPU   1761.43s WALL (      22 calls)
     sth_kernel   :    765.79s CPU   1109.24s WALL (     161 calls)
     h_prec       :    153.71s CPU    156.24s WALL (    7728 calls)
     apply_dpot_b :     92.00s CPU    141.64s WALL (   11328 calls)
     ortho        :     16.54s CPU     17.02s WALL (   11328 calls)
     cgsolve      :    346.98s CPU    421.15s WALL (   11328 calls)
     incdrhoscf   :     83.91s CPU    124.80s WALL (   11328 calls)
                                        0.00s GPU  (   11328 calls)
     addusddens   :     17.66s CPU     23.97s WALL (     183 calls)
     vpsifft      :     19.83s CPU     31.37s WALL (    1584 calls)
     dv_of_drho   :      2.10s CPU      2.37s WALL (     236 calls)
     mix_pot      :     31.65s CPU    111.00s WALL (     161 calls)
     drhodv       :     16.58s CPU     22.39s WALL (      22 calls)
     psymdvscf    :     35.03s CPU     35.34s WALL (     161 calls)
     newdq        :     20.52s CPU     20.66s WALL (     161 calls)
     adddvscf     :      1.39s CPU      1.51s WALL (   11328 calls)
     com_dvloc    :     23.52s CPU     37.29s WALL (    2343 calls)
                                        0.00s GPU  (    2343 calls)
     addcore      :      0.42s CPU      0.50s WALL (    1358 calls)
                                        0.00s GPU  (    1358 calls)
     drhodvus     :      9.12s CPU     31.39s WALL (      22 calls)
 
     dvqpsi_us    :     30.82s CPU     44.95s WALL (    1584 calls)
                                        0.00s GPU  (    1584 calls)
     dvqpsi_us_on :      5.07s CPU      5.14s WALL (    1584 calls)
 
     add_vuspsi   :      5.63s CPU      6.13s WALL (  240797 calls)
     addusdbec    :      0.73s CPU      0.79s WALL (   12912 calls)
 
     drhodvus     :      9.12s CPU     31.39s WALL (      22 calls)
 
      Electron-phonon coupling
     elphel       :     24.23s CPU     49.60s WALL (      22 calls)
     elphsum      :     26.97s CPU     27.31s WALL (       1 calls)
 
      General routines
     calbec       :     31.76s CPU     33.39s WALL (  510722 calls)
     fft          :      1.71s CPU      2.41s WALL (    5267 calls)
     ffts         :     23.93s CPU     37.95s WALL (    2850 calls)
     fftw         :    430.86s CPU    587.49s WALL ( 4655900 calls)
     davcio       :      5.21s CPU    301.22s WALL (   58423 calls)
     write_rec    :      0.28s CPU    120.65s WALL (     183 calls)
 
      Additional routines
     ch_psi       :    341.95s CPU    415.65s WALL (  238677 calls)
     last         :     20.24s CPU     21.99s WALL (  238677 calls)
     Hesh         :      0.69s CPU      0.77s WALL (  238677 calls)
     ch_psi_all_k :     18.42s CPU     20.00s WALL (  238677 calls)
                                        0.00s GPU  (  238677 calls)
     ch_psi_calbe :      6.10s CPU      6.59s WALL (  238677 calls)
                                        0.00s GPU  (  238677 calls)
     h_psi_bgrp   :    316.42s CPU    387.86s WALL (  240797 calls)
     h_psi        :    315.92s CPU    387.33s WALL (  240797 calls)
     h_psi:pot    :    315.06s CPU    386.38s WALL (  240797 calls)
     h_psi:calbec :      7.60s CPU      8.24s WALL (  240797 calls)
     s_psi_bgrp   :     12.51s CPU     13.58s WALL (  490802 calls)
     s_psi        :     10.89s CPU     11.83s WALL (  490802 calls)
 
 
     PHONON       :  19m41.40s CPU  30m53.85s WALL

 
   This run was terminated on:  16:59:45  22Oct2025            

=------------------------------------------------------------------------------=
   JOB DONE.
=------------------------------------------------------------------------------=
