
     Program PHONON v.7.4.1 starts on 22Oct2025 at 16:54:36 

     This program is part of the open-source Quantum ESPRESSO suite
     for quantum simulation of materials; please cite
         "P. Giannozzi et al., J. Phys.:Condens. Matter 21 395502 (2009);
         "P. Giannozzi et al., J. Phys.:Condens. Matter 29 465901 (2017);
         "P. Giannozzi et al., J. Chem. Phys. 152 154105 (2020);
          URL http://www.quantum-espresso.org", 
     in publications or presentations arising from this work. More details at
     http://www.quantum-espresso.org/quote

     Parallel version (MPI), running on    48 processors

     MPI processes distributed on     1 nodes
     180865 MiB available memory on the printing compute node when the environment starts
 
     Waiting for input...
     Reading input from standard input

     Reading xml data from directory:

     ./tmp/Ce1H10.save/
 
     K-points division:     npool     =       4
     R & G space division:  proc/nbgrp/npool/nimage =      12
     Subspace diagonalization in iterative solution of the eigenvalue problem:
     a serial algorithm will be used

     file Ce.paw.z_12.atompaw.wentzcovitch.v1.2.upf: wavefunction(s)  6S 0P 5D 0D 4F 0F renormalized
     file H.pbe-kjpaw_psl.1.0.0.UPF: wavefunction(s)  1S renormalized

     IMPORTANT: XC functional enforced from input :
     Exchange-correlation= PBE
                           (   1   4   3   4   0   0   0)
     Any further DFT definition will be discarded
     Please, verify this is what you really want

 
     Parallelization info
     --------------------
     sticks:   dense  smooth     PW     G-vecs:    dense   smooth      PW
     Min         226      76     22                 7730     1493     247
     Max         227      77     23                 7733     1495     249
     Sum        2713     913    271                92769    17933    2975
 
     Using Slab Decomposition
 
     Reading collected, re-writing distributed wavefunctions in ./tmp/


     Dynamical matrices for ( 6, 6, 6)  uniform grid of q-points
     (  16 q-points):
       N         xq(1)         xq(2)         xq(3) 
       1   0.000000000   0.000000000   0.000000000
       2   0.117851130   0.117851130  -0.117851130
       3   0.235702260   0.235702260  -0.235702260
       4  -0.353553391  -0.353553391   0.353553391
       5   0.235702260   0.000000000   0.000000000
       6   0.353553391   0.117851130  -0.117851130
       7  -0.235702260  -0.471404521   0.471404521
       8  -0.117851130  -0.353553391   0.353553391
       9   0.000000000  -0.235702260   0.235702260
      10   0.471404521   0.000000000   0.000000000
      11  -0.117851130  -0.589255651   0.589255651
      12  -0.000000000  -0.471404521   0.471404521
      13  -0.707106781   0.000000000   0.000000000
      14  -0.235702260  -0.471404521   0.707106781
      15  -0.117851130  -0.353553391   0.589255651
      16  -0.707106781   0.235702260   0.000000000

     Number and degeneracy of irreps per q-point
       N         xq(1)         xq(2)         xq(3)   N irreps
       1   0.000000000   0.000000000   0.000000000      13
        1   2   3   3   3   3   1   2   3   3   3   3   3
       2   0.117851130   0.117851130  -0.117851130      22
        1   1   1   1   1   1   1   1   1   1   1   2   2   2   2   2   2   2
   2   2   2   2
       3   0.235702260   0.235702260  -0.235702260      22
        1   1   1   1   1   1   1   1   1   1   1   2   2   2   2   2   2   2
   2   2   2   2
       4  -0.353553391  -0.353553391   0.353553391      22
        1   1   1   1   1   1   2   2   2   2   2   2   1   1   1   1   1   2
   2   2   2   2
       5   0.235702260   0.000000000   0.000000000      24
        1   1   1   1   1   1   1   1   1   1   1   1   1   1   1   2   2   2
   2   2   2   2   2   2
       6   0.353553391   0.117851130  -0.117851130      33
     No degeneracy
       7  -0.235702260  -0.471404521   0.471404521      33
     No degeneracy
       8  -0.117851130  -0.353553391   0.353553391      33
     No degeneracy
       9   0.000000000  -0.235702260   0.235702260      33
     No degeneracy
      10   0.471404521   0.000000000   0.000000000      24
        1   1   1   1   1   1   1   1   1   1   1   1   1   1   1   2   2   2
   2   2   2   2   2   2
      11  -0.117851130  -0.589255651   0.589255651      33
     No degeneracy
      12  -0.000000000  -0.471404521   0.471404521      33
     No degeneracy
      13  -0.707106781   0.000000000   0.000000000      24
        1   1   1   1   1   1   1   2   2   2   2   1   1   1   1   1   1   1
   1   2   2   2   2   2
      14  -0.235702260  -0.471404521   0.707106781      33
     No degeneracy
      15  -0.117851130  -0.353553391   0.589255651      33
     No degeneracy
      16  -0.707106781   0.235702260   0.000000000      33
     No degeneracy

     Saving dvscf to file. Distribute only q points, not irreducible representations.

     Calculation of q =    0.3535534   0.1178511  -0.1178511
 
     Parallelization info
     --------------------
     sticks:   dense  smooth     PW     G-vecs:    dense   smooth      PW
     Min         226      76     24                 7730     1493     273
     Max         227      77     25                 7733     1495     275
     Sum        2713     913    295                92769    17933    3287
 
     Using Slab Decomposition
 

     Title: 
     Electron-phonon coefficients for Ce1H10                                    


     bravais-lattice index     =            0
     lattice parameter (alat)  =       6.3833  a.u.
     unit-cell volume          =     183.9165 (a.u.)^3
     number of atoms/cell      =           11
     number of atomic types    =            2
     number of electrons       =        22.00
     number of Kohn-Sham states=           15
     kinetic-energy cutoff     =      80.0000  Ry
     charge density cutoff     =     960.0000  Ry
     Exchange-correlation= PBE
                           (   1   4   3   4   0   0   0)

     celldm(1)=   6.383300  celldm(2)=   0.000000  celldm(3)=   0.000000
     celldm(4)=   0.000000  celldm(5)=   0.000000  celldm(6)=   0.000000

     crystal axes: (cart. coord. in units of alat)
               a(1) = (   0.000000   0.707107   0.707107 )  
               a(2) = (   0.707107   0.000000   0.707107 )  
               a(3) = (   0.707107   0.707107   0.000000 )  

     reciprocal axes: (cart. coord. in units 2 pi/alat)
               b(1) = ( -0.707107  0.707107  0.707107 )  
               b(2) = (  0.707107 -0.707107  0.707107 )  
               b(3) = (  0.707107  0.707107 -0.707107 )  


     PseudoPot. # 1 for Ce read from file:
     /work/home/mayuan/workplace/1.typical_hydride/003.MH10/2.CeH10/250/Tc-666-paw/pp/Ce.paw.z_12.atompaw.wentzcovitch.v1.2.upf
     MD5 check sum: 2241420ff980c77e0c917a2dc8a7e08e
     Pseudo is Projector augmented-wave + core cor, Zval = 12.0
     Generated using ATOMPAW code
     Shape of augmentation charge: BESSEL
     Using radial grid of 1102 points,  8 beta functions with: 
                l(1) =   0
                l(2) =   0
                l(3) =   1
                l(4) =   1
                l(5) =   2
                l(6) =   2
                l(7) =   3
                l(8) =   3
     Q(r) pseudized with 0 coefficients 


     PseudoPot. # 2 for H  read from file:
     /work/home/mayuan/workplace/1.typical_hydride/003.MH10/2.CeH10/250/Tc-666-paw/pp/H.pbe-kjpaw_psl.1.0.0.UPF
     MD5 check sum: 3bb27c602ede137025941d095c9090b7
     Pseudo is Projector augmented-wave, Zval =  1.0
     Generated using 'atomic' code by A. Dal Corso  v.7.1
     Shape of augmentation charge: PSQ
     Using radial grid of  929 points,  2 beta functions with: 
                l(1) =   0
                l(2) =   0
     Q(r) pseudized with 0 coefficients 


     atomic species   valence    mass     pseudopotential
     Ce               12.00   140.11600     Ce( 1.00)
     H                 1.00     1.00794     H ( 1.00)

     48 Sym. Ops., with inversion, found



   Cartesian axes

     site n.     atom                  positions (alat units)
         1        Ce     tau(   1) = (   0.7071068   0.7071068   0.7071068  )
         2        H      tau(   2) = (   0.3535534   0.3535534   0.3535534  )
         3        H      tau(   3) = (   1.0606602   1.0606602   1.0606602  )
         4        H      tau(   4) = (   1.2411448   1.2411448   1.2411448  )
         5        H      tau(   5) = (   0.1730688   0.1730688   0.1730688  )
         6        H      tau(   6) = (   0.8801756   0.8801756   1.2411448  )
         7        H      tau(   7) = (   0.5340380   0.5340380   0.1730688  )
         8        H      tau(   8) = (   0.8801756   1.2411448   0.8801756  )
         9        H      tau(   9) = (   0.5340380   0.1730688   0.5340380  )
        10        H      tau(  10) = (   1.2411448   0.8801756   0.8801756  )
        11        H      tau(  11) = (   0.1730688   0.5340380   0.5340380  )

     number of k points=  1872  Gaussian smearing, width (Ry)=  0.0200

     Number of k-points >= 100: set verbosity='high' to print them.

     Dense  grid:    92769 G-vectors     FFT dimensions: (  64,  64,  64)

     Smooth grid:    17933 G-vectors     FFT dimensions: (  40,  40,  40)

     Estimated max dynamical RAM per process >      31.92 MB

     Estimated total dynamical RAM >       1.50 GB

     The potential is recalculated from file :
     ./tmp/_ph0/Ce1H10.q_6/Ce1H10.save/charge-density

     Starting wfcs are   42 atomic wfcs
     Checking if some PAW data can be deallocated... 

     Band Structure Calculation
     Davidson diagonalization with overlap

     ethr =  4.55E-11,  avg # of iterations = 19.1

     total cpu time spent up to now is       40.3 secs

     End of band structure calculation

     Number of k-points >= 100: set verbosity='high' to print the bands.

     the Fermi energy is    22.0987 ev

     Writing config to output data dir ./tmp/_ph0/Ce1H10.q_6/Ce1H10.save/ :
     XML data file

Possibly too few bands at point    1   0.00000   0.00000   0.00000

     Electron-phonon coefficients for Ce1H10                                    

     bravais-lattice index     =            0
     lattice parameter (alat)  =       6.3833  a.u.
     unit-cell volume          =     183.9165 (a.u.)^3
     number of atoms/cell      =           11
     number of atomic types    =            2
     kinetic-energy cut-off    =      80.0000  Ry
     charge density cut-off    =     960.0000  Ry
     convergence threshold     =      1.0E-14
     beta                      =       0.3000
     number of iterations used =            4
     Exchange-correlation= PBE
                           (   1   4   3   4   0   0   0)


     celldm(1)=    6.38330  celldm(2)=    0.00000  celldm(3)=    0.00000
     celldm(4)=    0.00000  celldm(5)=    0.00000  celldm(6)=    0.00000

     crystal axes: (cart. coord. in units of alat)
               a(1) = (  0.0000  0.7071  0.7071 )  
               a(2) = (  0.7071  0.0000  0.7071 )  
               a(3) = (  0.7071  0.7071  0.0000 )  

     reciprocal axes: (cart. coord. in units 2 pi/alat)
               b(1) = ( -0.7071  0.7071  0.7071 )  
               b(2) = (  0.7071 -0.7071  0.7071 )  
               b(3) = (  0.7071  0.7071 -0.7071 )  


     Atoms inside the unit cell: 

     Cartesian axes

     site n.  atom      mass           positions (alat units)
        1  Ce    140.1160   tau(    1) = (    0.70711    0.70711    0.70711  )
        2  H       1.0079   tau(    2) = (    0.35355    0.35355    0.35355  )
        3  H       1.0079   tau(    3) = (    1.06066    1.06066    1.06066  )
        4  H       1.0079   tau(    4) = (    1.24114    1.24114    1.24114  )
        5  H       1.0079   tau(    5) = (    0.17307    0.17307    0.17307  )
        6  H       1.0079   tau(    6) = (    0.88018    0.88018    1.24114  )
        7  H       1.0079   tau(    7) = (    0.53404    0.53404    0.17307  )
        8  H       1.0079   tau(    8) = (    0.88018    1.24114    0.88018  )
        9  H       1.0079   tau(    9) = (    0.53404    0.17307    0.53404  )
       10  H       1.0079   tau(   10) = (    1.24114    0.88018    0.88018  )
       11  H       1.0079   tau(   11) = (    0.17307    0.53404    0.53404  )

     Computing dynamical matrix for 
                    q = (   0.3535534   0.1178511  -0.1178511 )
 
      2 Sym.Ops. (no q -> -q+G )


     G cutoff =  990.8365  (   7731 G-vectors)     FFT grid: ( 64, 64, 64)
     G cutoff =  330.2788  (   1495 G-vectors)  smooth grid: ( 40, 40, 40)

     number of k points=  1872  Gaussian smearing, width (Ry)=  0.0200

     PseudoPot. # 1 for Ce read from file:
     /work/home/mayuan/workplace/1.typical_hydride/003.MH10/2.CeH10/250/Tc-666-paw/pp/Ce.paw.z_12.atompaw.wentzcovitch.v1.2.upf
     MD5 check sum: 2241420ff980c77e0c917a2dc8a7e08e
     Pseudo is Projector augmented-wave + core cor, Zval = 12.0
     Generated using ATOMPAW code
     Shape of augmentation charge: BESSEL
     Using radial grid of 1102 points,  8 beta functions with: 
                l(1) =   0
                l(2) =   0
                l(3) =   1
                l(4) =   1
                l(5) =   2
                l(6) =   2
                l(7) =   3
                l(8) =   3
     Q(r) pseudized with 0 coefficients 


     PseudoPot. # 2 for H  read from file:
     /work/home/mayuan/workplace/1.typical_hydride/003.MH10/2.CeH10/250/Tc-666-paw/pp/H.pbe-kjpaw_psl.1.0.0.UPF
     MD5 check sum: 3bb27c602ede137025941d095c9090b7
     Pseudo is Projector augmented-wave, Zval =  1.0
     Generated using 'atomic' code by A. Dal Corso  v.7.1
     Shape of augmentation charge: PSQ
     Using radial grid of  929 points,  2 beta functions with: 
                l(1) =   0
                l(2) =   0
     Q(r) pseudized with 0 coefficients 


     Mode symmetry, C_s (m)     point group:


     Atomic displacements:
     There are   33 irreducible representations

     Representation     1      1 modes -  To be done

     Representation     2      1 modes -  To be done

     Representation     3      1 modes -  To be done

     Representation     4      1 modes -  To be done

     Representation     5      1 modes -  To be done

     Representation     6      1 modes -  To be done

     Representation     7      1 modes -  To be done

     Representation     8      1 modes -  To be done

     Representation     9      1 modes -  To be done

     Representation    10      1 modes -  To be done

     Representation    11      1 modes -  To be done

     Representation    12      1 modes -  To be done

     Representation    13      1 modes -  To be done

     Representation    14      1 modes -  To be done

     Representation    15      1 modes -  To be done

     Representation    16      1 modes -  To be done

     Representation    17      1 modes -  To be done

     Representation    18      1 modes -  To be done

     Representation    19      1 modes -  To be done

     Representation    20      1 modes -  To be done

     Representation    21      1 modes -  To be done

     Representation    22      1 modes -  To be done

     Representation    23      1 modes -  To be done

     Representation    24      1 modes -  To be done

     Representation    25      1 modes -  To be done

     Representation    26      1 modes -  To be done

     Representation    27      1 modes -  To be done

     Representation    28      1 modes -  To be done

     Representation    29      1 modes -  To be done

     Representation    30      1 modes -  To be done

     Representation    31      1 modes -  To be done

     Representation    32      1 modes -  To be done

     Representation    33      1 modes -  To be done


     Message from routine init_vloc:
     Interpolation table for Vloc re-allocated

     Alpha used in Ewald sum =   2.8000
     PHONON       :   1m 9.21s CPU   1m27.99s WALL



     Representation #   1 mode #   1

     Self-consistent Calculation

      iter #   1 total cpu time :   116.6 secs   av.it.:   7.8
      thresh= 1.000E-02 alpha_mix =  0.300 |ddv_scf|^2 =  1.293E-05

      iter #   2 total cpu time :   149.8 secs   av.it.:  15.5
      thresh= 3.596E-04 alpha_mix =  0.300 |ddv_scf|^2 =  1.987E-04

      iter #   3 total cpu time :   183.4 secs   av.it.:  13.0
      thresh= 1.410E-03 alpha_mix =  0.300 |ddv_scf|^2 =  7.802E-08

      iter #   4 total cpu time :   220.4 secs   av.it.:  15.0
      thresh= 2.793E-05 alpha_mix =  0.300 |ddv_scf|^2 =  1.880E-09

      iter #   5 total cpu time :   258.2 secs   av.it.:  16.3
      thresh= 4.336E-06 alpha_mix =  0.300 |ddv_scf|^2 =  1.312E-09

      iter #   6 total cpu time :   298.3 secs   av.it.:  15.9
      thresh= 3.622E-06 alpha_mix =  0.300 |ddv_scf|^2 =  5.095E-11

      iter #   7 total cpu time :   335.9 secs   av.it.:  16.7
      thresh= 7.138E-07 alpha_mix =  0.300 |ddv_scf|^2 =  3.480E-12

      iter #   8 total cpu time :   372.1 secs   av.it.:  17.1
      thresh= 1.865E-07 alpha_mix =  0.300 |ddv_scf|^2 =  5.203E-12

      iter #   9 total cpu time :   409.4 secs   av.it.:  15.0
      thresh= 2.281E-07 alpha_mix =  0.300 |ddv_scf|^2 =  5.803E-12

      iter #  10 total cpu time :   446.7 secs   av.it.:  15.1
      thresh= 2.409E-07 alpha_mix =  0.300 |ddv_scf|^2 =  7.333E-14

      iter #  11 total cpu time :   480.9 secs   av.it.:  16.4
      thresh= 2.708E-08 alpha_mix =  0.300 |ddv_scf|^2 =  4.519E-14

      iter #  12 total cpu time :   517.5 secs   av.it.:  15.9
      thresh= 2.126E-08 alpha_mix =  0.300 |ddv_scf|^2 =  1.803E-14

      iter #  13 total cpu time :   556.1 secs   av.it.:  15.8
      thresh= 1.343E-08 alpha_mix =  0.300 |ddv_scf|^2 =  5.097E-15

     End of self-consistent calculation

     Convergence has been achieved 


     Representation #   2 mode #   2

     Self-consistent Calculation

      iter #   1 total cpu time :   617.7 secs   av.it.:   7.7
      thresh= 1.000E-02 alpha_mix =  0.300 |ddv_scf|^2 =  5.207E-06

      iter #   2 total cpu time :   649.6 secs   av.it.:  15.5
      thresh= 2.282E-04 alpha_mix =  0.300 |ddv_scf|^2 =  7.405E-05

      iter #   3 total cpu time :   682.1 secs   av.it.:  13.0
      thresh= 8.605E-04 alpha_mix =  0.300 |ddv_scf|^2 =  1.488E-07

      iter #   4 total cpu time :   717.3 secs   av.it.:  14.8
      thresh= 3.858E-05 alpha_mix =  0.300 |ddv_scf|^2 =  1.229E-08

      iter #   5 total cpu time :   754.8 secs   av.it.:  15.6
      thresh= 1.109E-05 alpha_mix =  0.300 |ddv_scf|^2 =  6.476E-10

      iter #   6 total cpu time :   792.5 secs   av.it.:  16.1
      thresh= 2.545E-06 alpha_mix =  0.300 |ddv_scf|^2 =  3.002E-11

      iter #   7 total cpu time :   826.6 secs   av.it.:  17.3
      thresh= 5.479E-07 alpha_mix =  0.300 |ddv_scf|^2 =  2.493E-11

      iter #   8 total cpu time :   860.7 secs   av.it.:  14.2
      thresh= 4.993E-07 alpha_mix =  0.300 |ddv_scf|^2 =  9.000E-12

      iter #   9 total cpu time :   894.6 secs   av.it.:  15.6
      thresh= 3.000E-07 alpha_mix =  0.300 |ddv_scf|^2 =  5.889E-13

      iter #  10 total cpu time :   934.2 secs   av.it.:  16.5
      thresh= 7.674E-08 alpha_mix =  0.300 |ddv_scf|^2 =  1.590E-13

      iter #  11 total cpu time :   968.5 secs   av.it.:  16.0
      thresh= 3.988E-08 alpha_mix =  0.300 |ddv_scf|^2 =  2.034E-14

      iter #  12 total cpu time :  1005.0 secs   av.it.:  16.5
      thresh= 1.426E-08 alpha_mix =  0.300 |ddv_scf|^2 =  6.347E-15

     End of self-consistent calculation

     Convergence has been achieved 


     Representation #   3 mode #   3

     Self-consistent Calculation

      iter #   1 total cpu time :  1059.8 secs   av.it.:  12.2
      thresh= 1.000E-02 alpha_mix =  0.300 |ddv_scf|^2 =  1.494E-03

      iter #   2 total cpu time :  1088.8 secs   av.it.:  15.4
      thresh= 3.865E-03 alpha_mix =  0.300 |ddv_scf|^2 =  1.923E-02

      iter #   3 total cpu time :  1116.7 secs   av.it.:  13.6
      thresh= 1.000E-02 alpha_mix =  0.300 |ddv_scf|^2 =  1.201E-04

      iter #   4 total cpu time :  1146.6 secs   av.it.:  13.8
      thresh= 1.096E-03 alpha_mix =  0.300 |ddv_scf|^2 =  5.139E-06

      iter #   5 total cpu time :  1179.6 secs   av.it.:  13.6
      thresh= 2.267E-04 alpha_mix =  0.300 |ddv_scf|^2 =  4.488E-08

      iter #   6 total cpu time :  1215.2 secs   av.it.:  15.3
      thresh= 2.119E-05 alpha_mix =  0.300 |ddv_scf|^2 =  1.461E-09

      iter #   7 total cpu time :  1249.5 secs   av.it.:  15.9
      thresh= 3.822E-06 alpha_mix =  0.300 |ddv_scf|^2 =  1.991E-10

      iter #   8 total cpu time :  1279.9 secs   av.it.:  16.2
      thresh= 1.411E-06 alpha_mix =  0.300 |ddv_scf|^2 =  3.888E-11

      iter #   9 total cpu time :  1316.5 secs   av.it.:  14.9
      thresh= 6.235E-07 alpha_mix =  0.300 |ddv_scf|^2 =  6.617E-11

      iter #  10 total cpu time :  1350.9 secs   av.it.:  15.7
      thresh= 8.134E-07 alpha_mix =  0.300 |ddv_scf|^2 =  7.157E-13

      iter #  11 total cpu time :  1386.4 secs   av.it.:  16.7
      thresh= 8.460E-08 alpha_mix =  0.300 |ddv_scf|^2 =  3.841E-13

      iter #  12 total cpu time :  1423.2 secs   av.it.:  15.8
      thresh= 6.198E-08 alpha_mix =  0.300 |ddv_scf|^2 =  1.762E-14

      iter #  13 total cpu time :  1460.2 secs   av.it.:  15.5
      thresh= 1.327E-08 alpha_mix =  0.300 |ddv_scf|^2 =  6.775E-15

     End of self-consistent calculation

     Convergence has been achieved 


     Representation #   4 mode #   4

     Self-consistent Calculation

      iter #   1 total cpu time :  1511.4 secs   av.it.:   8.1
      thresh= 1.000E-02 alpha_mix =  0.300 |ddv_scf|^2 =  1.508E-05

      iter #   2 total cpu time :  1543.8 secs   av.it.:  15.4
      thresh= 3.883E-04 alpha_mix =  0.300 |ddv_scf|^2 =  2.193E-04

      iter #   3 total cpu time :  1578.2 secs   av.it.:  13.0
      thresh= 1.481E-03 alpha_mix =  0.300 |ddv_scf|^2 =  3.160E-07

      iter #   4 total cpu time :  1615.3 secs   av.it.:  14.7
      thresh= 5.621E-05 alpha_mix =  0.300 |ddv_scf|^2 =  3.922E-08

      iter #   5 total cpu time :  1652.1 secs   av.it.:  14.6
      thresh= 1.980E-05 alpha_mix =  0.300 |ddv_scf|^2 =  8.258E-10

      iter #   6 total cpu time :  1686.3 secs   av.it.:  16.3
      thresh= 2.874E-06 alpha_mix =  0.300 |ddv_scf|^2 =  8.261E-11

      iter #   7 total cpu time :  1726.8 secs   av.it.:  16.8
      thresh= 9.089E-07 alpha_mix =  0.300 |ddv_scf|^2 =  1.564E-11

      iter #   8 total cpu time :  1762.3 secs   av.it.:  15.2
      thresh= 3.955E-07 alpha_mix =  0.300 |ddv_scf|^2 =  2.683E-11

      iter #   9 total cpu time :  1796.4 secs   av.it.:  14.9
      thresh= 5.180E-07 alpha_mix =  0.300 |ddv_scf|^2 =  2.981E-12

      iter #  10 total cpu time :  1833.4 secs   av.it.:  16.0
      thresh= 1.727E-07 alpha_mix =  0.300 |ddv_scf|^2 =  7.057E-14

      iter #  11 total cpu time :  1874.9 secs   av.it.:  16.3
      thresh= 2.657E-08 alpha_mix =  0.300 |ddv_scf|^2 =  7.314E-14

      iter #  12 total cpu time :  1913.1 secs   av.it.:  16.0
      thresh= 2.705E-08 alpha_mix =  0.300 |ddv_scf|^2 =  6.873E-15

     End of self-consistent calculation

     Convergence has been achieved 


     Representation #   5 mode #   5

     Self-consistent Calculation

      iter #   1 total cpu time :  1966.2 secs   av.it.:   7.7
      thresh= 1.000E-02 alpha_mix =  0.300 |ddv_scf|^2 =  8.672E-06

      iter #   2 total cpu time :  1994.7 secs   av.it.:  15.4
      thresh= 2.945E-04 alpha_mix =  0.300 |ddv_scf|^2 =  1.239E-04

      iter #   3 total cpu time :  2026.3 secs   av.it.:  13.0
      thresh= 1.113E-03 alpha_mix =  0.300 |ddv_scf|^2 =  2.381E-07

      iter #   4 total cpu time :  2066.6 secs   av.it.:  14.6
      thresh= 4.880E-05 alpha_mix =  0.300 |ddv_scf|^2 =  2.825E-08

      iter #   5 total cpu time :  2099.8 secs   av.it.:  14.9
      thresh= 1.681E-05 alpha_mix =  0.300 |ddv_scf|^2 =  2.386E-09

      iter #   6 total cpu time :  2134.6 secs   av.it.:  15.4
      thresh= 4.885E-06 alpha_mix =  0.300 |ddv_scf|^2 =  3.618E-11

      iter #   7 total cpu time :  2172.5 secs   av.it.:  17.0
      thresh= 6.015E-07 alpha_mix =  0.300 |ddv_scf|^2 =  1.223E-11

      iter #   8 total cpu time :  2214.6 secs   av.it.:  15.7
      thresh= 3.497E-07 alpha_mix =  0.300 |ddv_scf|^2 =  2.301E-11

      iter #   9 total cpu time :  2252.1 secs   av.it.:  13.6
      thresh= 4.796E-07 alpha_mix =  0.300 |ddv_scf|^2 =  2.541E-12

      iter #  10 total cpu time :  2289.4 secs   av.it.:  15.8
      thresh= 1.594E-07 alpha_mix =  0.300 |ddv_scf|^2 =  1.717E-13

      iter #  11 total cpu time :  2327.1 secs   av.it.:  15.8
      thresh= 4.144E-08 alpha_mix =  0.300 |ddv_scf|^2 =  7.051E-14

      iter #  12 total cpu time :  2364.0 secs   av.it.:  15.7
      thresh= 2.655E-08 alpha_mix =  0.300 |ddv_scf|^2 =  2.646E-15

     End of self-consistent calculation

     Convergence has been achieved 


     Representation #   6 mode #   6

     Self-consistent Calculation

      iter #   1 total cpu time :  2414.1 secs   av.it.:   7.9
      thresh= 1.000E-02 alpha_mix =  0.300 |ddv_scf|^2 =  1.264E-05

      iter #   2 total cpu time :  2446.7 secs   av.it.:  15.4
      thresh= 3.555E-04 alpha_mix =  0.300 |ddv_scf|^2 =  1.689E-04

      iter #   3 total cpu time :  2477.3 secs   av.it.:  13.1
      thresh= 1.299E-03 alpha_mix =  0.300 |ddv_scf|^2 =  7.359E-07

      iter #   4 total cpu time :  2508.9 secs   av.it.:  14.1
      thresh= 8.579E-05 alpha_mix =  0.300 |ddv_scf|^2 =  5.277E-08

      iter #   5 total cpu time :  2542.2 secs   av.it.:  14.5
      thresh= 2.297E-05 alpha_mix =  0.300 |ddv_scf|^2 =  3.879E-10

      iter #   6 total cpu time :  2573.3 secs   av.it.:  16.7
      thresh= 1.970E-06 alpha_mix =  0.300 |ddv_scf|^2 =  4.089E-11

      iter #   7 total cpu time :  2609.6 secs   av.it.:  16.9
      thresh= 6.395E-07 alpha_mix =  0.300 |ddv_scf|^2 =  3.358E-12

      iter #   8 total cpu time :  2648.9 secs   av.it.:  16.8
      thresh= 1.832E-07 alpha_mix =  0.300 |ddv_scf|^2 =  1.094E-11

      iter #   9 total cpu time :  2683.9 secs   av.it.:  13.8
      thresh= 3.308E-07 alpha_mix =  0.300 |ddv_scf|^2 =  2.071E-12

      iter #  10 total cpu time :  2726.6 secs   av.it.:  15.7
      thresh= 1.439E-07 alpha_mix =  0.300 |ddv_scf|^2 =  7.715E-13

      iter #  11 total cpu time :  2762.1 secs   av.it.:  15.5
      thresh= 8.784E-08 alpha_mix =  0.300 |ddv_scf|^2 =  6.357E-14

      iter #  12 total cpu time :  2801.2 secs   av.it.:  16.0
      thresh= 2.521E-08 alpha_mix =  0.300 |ddv_scf|^2 =  1.702E-14

      iter #  13 total cpu time :  2837.2 secs   av.it.:  16.1
      thresh= 1.305E-08 alpha_mix =  0.300 |ddv_scf|^2 =  1.126E-14

      iter #  14 total cpu time :  2879.2 secs   av.it.:  14.6
      thresh= 1.061E-08 alpha_mix =  0.300 |ddv_scf|^2 =  1.117E-15

     End of self-consistent calculation

     Convergence has been achieved 


     Representation #   7 mode #   7

     Self-consistent Calculation

      iter #   1 total cpu time :  2938.4 secs   av.it.:   8.1
      thresh= 1.000E-02 alpha_mix =  0.300 |ddv_scf|^2 =  1.665E-05

      iter #   2 total cpu time :  2970.8 secs   av.it.:  15.5
      thresh= 4.080E-04 alpha_mix =  0.300 |ddv_scf|^2 =  2.423E-04

      iter #   3 total cpu time :  3003.6 secs   av.it.:  13.0
      thresh= 1.557E-03 alpha_mix =  0.300 |ddv_scf|^2 =  3.467E-07

      iter #   4 total cpu time :  3039.6 secs   av.it.:  14.7
      thresh= 5.888E-05 alpha_mix =  0.300 |ddv_scf|^2 =  2.052E-08

      iter #   5 total cpu time :  3076.5 secs   av.it.:  15.3
      thresh= 1.432E-05 alpha_mix =  0.300 |ddv_scf|^2 =  1.268E-09

      iter #   6 total cpu time :  3117.4 secs   av.it.:  15.9
      thresh= 3.561E-06 alpha_mix =  0.300 |ddv_scf|^2 =  4.191E-11

      iter #   7 total cpu time :  3156.6 secs   av.it.:  17.1
      thresh= 6.474E-07 alpha_mix =  0.300 |ddv_scf|^2 =  5.798E-12

      iter #   8 total cpu time :  3192.9 secs   av.it.:  15.9
      thresh= 2.408E-07 alpha_mix =  0.300 |ddv_scf|^2 =  2.639E-11

      iter #   9 total cpu time :  3231.2 secs   av.it.:  14.1
      thresh= 5.137E-07 alpha_mix =  0.300 |ddv_scf|^2 =  8.321E-13

      iter #  10 total cpu time :  3273.1 secs   av.it.:  16.8
      thresh= 9.122E-08 alpha_mix =  0.300 |ddv_scf|^2 =  4.541E-14

      iter #  11 total cpu time :  3310.6 secs   av.it.:  16.7
      thresh= 2.131E-08 alpha_mix =  0.300 |ddv_scf|^2 =  3.239E-13

      iter #  12 total cpu time :  3348.9 secs   av.it.:  13.8
      thresh= 5.691E-08 alpha_mix =  0.300 |ddv_scf|^2 =  1.621E-14

      iter #  13 total cpu time :  3388.4 secs   av.it.:  16.4
      thresh= 1.273E-08 alpha_mix =  0.300 |ddv_scf|^2 =  2.179E-14

      iter #  14 total cpu time :  3426.2 secs   av.it.:  14.6
      thresh= 1.476E-08 alpha_mix =  0.300 |ddv_scf|^2 =  9.786E-16

     End of self-consistent calculation

     Convergence has been achieved 


     Representation #   8 mode #   8

     Self-consistent Calculation

      iter #   1 total cpu time :  3481.3 secs   av.it.:   7.6
      thresh= 1.000E-02 alpha_mix =  0.300 |ddv_scf|^2 =  4.667E-06

      iter #   2 total cpu time :  3514.4 secs   av.it.:  15.6
      thresh= 2.160E-04 alpha_mix =  0.300 |ddv_scf|^2 =  6.871E-05

      iter #   3 total cpu time :  3547.8 secs   av.it.:  13.0
      thresh= 8.289E-04 alpha_mix =  0.300 |ddv_scf|^2 =  7.604E-08

      iter #   4 total cpu time :  3581.8 secs   av.it.:  15.1
      thresh= 2.758E-05 alpha_mix =  0.300 |ddv_scf|^2 =  2.311E-09

      iter #   5 total cpu time :  3615.1 secs   av.it.:  16.3
      thresh= 4.807E-06 alpha_mix =  0.300 |ddv_scf|^2 =  3.051E-10

      iter #   6 total cpu time :  3654.0 secs   av.it.:  16.6
      thresh= 1.747E-06 alpha_mix =  0.300 |ddv_scf|^2 =  2.709E-11

      iter #   7 total cpu time :  3691.6 secs   av.it.:  16.9
      thresh= 5.205E-07 alpha_mix =  0.300 |ddv_scf|^2 =  5.476E-12

      iter #   8 total cpu time :  3733.0 secs   av.it.:  16.4
      thresh= 2.340E-07 alpha_mix =  0.300 |ddv_scf|^2 =  3.302E-11

      iter #   9 total cpu time :  3770.9 secs   av.it.:  14.2
      thresh= 5.746E-07 alpha_mix =  0.300 |ddv_scf|^2 =  1.227E-12

      iter #  10 total cpu time :  3807.6 secs   av.it.:  16.0
      thresh= 1.108E-07 alpha_mix =  0.300 |ddv_scf|^2 =  1.151E-12

      iter #  11 total cpu time :  3844.6 secs   av.it.:  14.5
      thresh= 1.073E-07 alpha_mix =  0.300 |ddv_scf|^2 =  5.915E-14

      iter #  12 total cpu time :  3881.5 secs   av.it.:  16.6
      thresh= 2.432E-08 alpha_mix =  0.300 |ddv_scf|^2 =  1.936E-14

      iter #  13 total cpu time :  3920.1 secs   av.it.:  15.8
      thresh= 1.391E-08 alpha_mix =  0.300 |ddv_scf|^2 =  4.037E-15

     End of self-consistent calculation

     Convergence has been achieved 


     Representation #   9 mode #   9

     Self-consistent Calculation

      iter #   1 total cpu time :  3973.6 secs   av.it.:   7.7
      thresh= 1.000E-02 alpha_mix =  0.300 |ddv_scf|^2 =  8.056E-06

      iter #   2 total cpu time :  4007.5 secs   av.it.:  15.5
      thresh= 2.838E-04 alpha_mix =  0.300 |ddv_scf|^2 =  1.162E-04

      iter #   3 total cpu time :  4042.3 secs   av.it.:  13.0
      thresh= 1.078E-03 alpha_mix =  0.300 |ddv_scf|^2 =  1.926E-07

      iter #   4 total cpu time :  4074.6 secs   av.it.:  14.7
      thresh= 4.389E-05 alpha_mix =  0.300 |ddv_scf|^2 =  1.063E-08

      iter #   5 total cpu time :  4113.0 secs   av.it.:  15.6
      thresh= 1.031E-05 alpha_mix =  0.300 |ddv_scf|^2 =  6.691E-10

      iter #   6 total cpu time :  4150.9 secs   av.it.:  16.2
      thresh= 2.587E-06 alpha_mix =  0.300 |ddv_scf|^2 =  3.406E-11

      iter #   7 total cpu time :  4190.1 secs   av.it.:  17.1
      thresh= 5.836E-07 alpha_mix =  0.300 |ddv_scf|^2 =  1.477E-11

      iter #   8 total cpu time :  4225.2 secs   av.it.:  14.8
      thresh= 3.843E-07 alpha_mix =  0.300 |ddv_scf|^2 =  1.391E-11

      iter #   9 total cpu time :  4265.3 secs   av.it.:  15.2
      thresh= 3.730E-07 alpha_mix =  0.300 |ddv_scf|^2 =  4.931E-13

      iter #  10 total cpu time :  4306.8 secs   av.it.:  16.9
      thresh= 7.022E-08 alpha_mix =  0.300 |ddv_scf|^2 =  9.854E-14

      iter #  11 total cpu time :  4346.6 secs   av.it.:  16.0
      thresh= 3.139E-08 alpha_mix =  0.300 |ddv_scf|^2 =  5.734E-14

      iter #  12 total cpu time :  4383.2 secs   av.it.:  15.6
      thresh= 2.395E-08 alpha_mix =  0.300 |ddv_scf|^2 =  1.143E-14

      iter #  13 total cpu time :  4422.7 secs   av.it.:  16.3
      thresh= 1.069E-08 alpha_mix =  0.300 |ddv_scf|^2 =  1.355E-14

      iter #  14 total cpu time :  4464.1 secs   av.it.:  14.4
      thresh= 1.164E-08 alpha_mix =  0.300 |ddv_scf|^2 =  4.650E-16

     End of self-consistent calculation

     Convergence has been achieved 


     Representation #  10 mode #  10

     Self-consistent Calculation

      iter #   1 total cpu time :  4522.4 secs   av.it.:   8.1
      thresh= 1.000E-02 alpha_mix =  0.300 |ddv_scf|^2 =  1.964E-05

      iter #   2 total cpu time :  4556.1 secs   av.it.:  15.4
      thresh= 4.431E-04 alpha_mix =  0.300 |ddv_scf|^2 =  2.942E-04

      iter #   3 total cpu time :  4590.1 secs   av.it.:  13.0
      thresh= 1.715E-03 alpha_mix =  0.300 |ddv_scf|^2 =  2.357E-07

      iter #   4 total cpu time :  4628.1 secs   av.it.:  14.8
      thresh= 4.855E-05 alpha_mix =  0.300 |ddv_scf|^2 =  2.390E-08

      iter #   5 total cpu time :  4666.3 secs   av.it.:  15.2
      thresh= 1.546E-05 alpha_mix =  0.300 |ddv_scf|^2 =  5.998E-09

      iter #   6 total cpu time :  4704.6 secs   av.it.:  15.0
      thresh= 7.745E-06 alpha_mix =  0.300 |ddv_scf|^2 =  4.117E-11

      iter #   7 total cpu time :  4743.8 secs   av.it.:  17.2
      thresh= 6.416E-07 alpha_mix =  0.300 |ddv_scf|^2 =  7.286E-12

      iter #   8 total cpu time :  4786.7 secs   av.it.:  16.1
      thresh= 2.699E-07 alpha_mix =  0.300 |ddv_scf|^2 =  1.727E-11

      iter #   9 total cpu time :  4823.5 secs   av.it.:  13.6
      thresh= 4.155E-07 alpha_mix =  0.300 |ddv_scf|^2 =  1.808E-12

      iter #  10 total cpu time :  4862.3 secs   av.it.:  16.0
      thresh= 1.345E-07 alpha_mix =  0.300 |ddv_scf|^2 =  8.816E-14

      iter #  11 total cpu time :  4902.3 secs   av.it.:  16.0
      thresh= 2.969E-08 alpha_mix =  0.300 |ddv_scf|^2 =  1.390E-13

      iter #  12 total cpu time :  4941.9 secs   av.it.:  15.6
      thresh= 3.729E-08 alpha_mix =  0.300 |ddv_scf|^2 =  1.049E-14

      iter #  13 total cpu time :  4981.6 secs   av.it.:  16.2
      thresh= 1.024E-08 alpha_mix =  0.300 |ddv_scf|^2 =  4.094E-15

     End of self-consistent calculation

     Convergence has been achieved 


     Representation #  11 mode #  11

     Self-consistent Calculation

      iter #   1 total cpu time :  5036.3 secs   av.it.:   7.8
      thresh= 1.000E-02 alpha_mix =  0.300 |ddv_scf|^2 =  1.087E-05

      iter #   2 total cpu time :  5070.8 secs   av.it.:  15.4
      thresh= 3.297E-04 alpha_mix =  0.300 |ddv_scf|^2 =  1.591E-04

      iter #   3 total cpu time :  5104.3 secs   av.it.:  13.0
      thresh= 1.262E-03 alpha_mix =  0.300 |ddv_scf|^2 =  2.068E-07

      iter #   4 total cpu time :  5140.8 secs   av.it.:  14.6
      thresh= 4.548E-05 alpha_mix =  0.300 |ddv_scf|^2 =  2.154E-08

      iter #   5 total cpu time :  5176.5 secs   av.it.:  15.0
      thresh= 1.468E-05 alpha_mix =  0.300 |ddv_scf|^2 =  3.443E-09

      iter #   6 total cpu time :  5212.2 secs   av.it.:  15.2
      thresh= 5.868E-06 alpha_mix =  0.300 |ddv_scf|^2 =  3.062E-11

      iter #   7 total cpu time :  5251.4 secs   av.it.:  17.1
      thresh= 5.533E-07 alpha_mix =  0.300 |ddv_scf|^2 =  1.217E-11

      iter #   8 total cpu time :  5289.4 secs   av.it.:  15.6
      thresh= 3.489E-07 alpha_mix =  0.300 |ddv_scf|^2 =  1.270E-11

      iter #   9 total cpu time :  5328.3 secs   av.it.:  13.6
      thresh= 3.564E-07 alpha_mix =  0.300 |ddv_scf|^2 =  2.694E-12

      iter #  10 total cpu time :  5371.1 secs   av.it.:  15.7
      thresh= 1.641E-07 alpha_mix =  0.300 |ddv_scf|^2 =  9.374E-14

      iter #  11 total cpu time :  5410.1 secs   av.it.:  16.1
      thresh= 3.062E-08 alpha_mix =  0.300 |ddv_scf|^2 =  1.241E-14

      iter #  12 total cpu time :  5453.4 secs   av.it.:  15.7
      thresh= 1.114E-08 alpha_mix =  0.300 |ddv_scf|^2 =  1.339E-15

     End of self-consistent calculation

     Convergence has been achieved 


     Representation #  12 mode #  12

     Self-consistent Calculation

      iter #   1 total cpu time :  5510.0 secs   av.it.:   7.6
      thresh= 1.000E-02 alpha_mix =  0.300 |ddv_scf|^2 =  5.299E-06

      iter #   2 total cpu time :  5544.9 secs   av.it.:  15.5
      thresh= 2.302E-04 alpha_mix =  0.300 |ddv_scf|^2 =  7.522E-05

      iter #   3 total cpu time :  5580.6 secs   av.it.:  13.0
      thresh= 8.673E-04 alpha_mix =  0.300 |ddv_scf|^2 =  1.566E-07

      iter #   4 total cpu time :  5617.8 secs   av.it.:  14.8
      thresh= 3.957E-05 alpha_mix =  0.300 |ddv_scf|^2 =  9.974E-09

      iter #   5 total cpu time :  5654.8 secs   av.it.:  15.6
      thresh= 9.987E-06 alpha_mix =  0.300 |ddv_scf|^2 =  4.538E-10

      iter #   6 total cpu time :  5688.7 secs   av.it.:  16.4
      thresh= 2.130E-06 alpha_mix =  0.300 |ddv_scf|^2 =  3.150E-11

      iter #   7 total cpu time :  5724.4 secs   av.it.:  17.0
      thresh= 5.612E-07 alpha_mix =  0.300 |ddv_scf|^2 =  1.757E-11

      iter #   8 total cpu time :  5761.7 secs   av.it.:  14.7
      thresh= 4.192E-07 alpha_mix =  0.300 |ddv_scf|^2 =  1.251E-11

      iter #   9 total cpu time :  5800.0 secs   av.it.:  15.4
      thresh= 3.537E-07 alpha_mix =  0.300 |ddv_scf|^2 =  4.445E-13

      iter #  10 total cpu time :  5840.1 secs   av.it.:  16.9
      thresh= 6.667E-08 alpha_mix =  0.300 |ddv_scf|^2 =  8.994E-14

      iter #  11 total cpu time :  5878.3 secs   av.it.:  16.1
      thresh= 2.999E-08 alpha_mix =  0.300 |ddv_scf|^2 =  7.134E-14

      iter #  12 total cpu time :  5919.6 secs   av.it.:  15.4
      thresh= 2.671E-08 alpha_mix =  0.300 |ddv_scf|^2 =  1.493E-14

      iter #  13 total cpu time :  5957.1 secs   av.it.:  16.2
      thresh= 1.222E-08 alpha_mix =  0.300 |ddv_scf|^2 =  2.266E-14

      iter #  14 total cpu time :  5993.9 secs   av.it.:  14.4
      thresh= 1.505E-08 alpha_mix =  0.300 |ddv_scf|^2 =  9.108E-16

     End of self-consistent calculation

     Convergence has been achieved 


     Representation #  13 mode #  13

     Self-consistent Calculation

      iter #   1 total cpu time :  6044.6 secs   av.it.:   7.7
      thresh= 1.000E-02 alpha_mix =  0.300 |ddv_scf|^2 =  1.017E-05

      iter #   2 total cpu time :  6080.1 secs   av.it.:  15.5
      thresh= 3.189E-04 alpha_mix =  0.300 |ddv_scf|^2 =  1.577E-04

      iter #   3 total cpu time :  6113.6 secs   av.it.:  13.0
      thresh= 1.256E-03 alpha_mix =  0.300 |ddv_scf|^2 =  4.484E-08

      iter #   4 total cpu time :  6148.4 secs   av.it.:  15.2
      thresh= 2.117E-05 alpha_mix =  0.300 |ddv_scf|^2 =  1.113E-09

      iter #   5 total cpu time :  6182.8 secs   av.it.:  16.5
      thresh= 3.337E-06 alpha_mix =  0.300 |ddv_scf|^2 =  6.575E-10

      iter #   6 total cpu time :  6219.8 secs   av.it.:  16.2
      thresh= 2.564E-06 alpha_mix =  0.300 |ddv_scf|^2 =  4.089E-11

      iter #   7 total cpu time :  6258.3 secs   av.it.:  16.8
      thresh= 6.395E-07 alpha_mix =  0.300 |ddv_scf|^2 =  4.017E-12

      iter #   8 total cpu time :  6299.6 secs   av.it.:  17.1
      thresh= 2.004E-07 alpha_mix =  0.300 |ddv_scf|^2 =  3.175E-11

      iter #   9 total cpu time :  6334.5 secs   av.it.:  14.1
      thresh= 5.635E-07 alpha_mix =  0.300 |ddv_scf|^2 =  4.290E-12

      iter #  10 total cpu time :  6371.7 secs   av.it.:  15.6
      thresh= 2.071E-07 alpha_mix =  0.300 |ddv_scf|^2 =  3.103E-13

      iter #  11 total cpu time :  6408.4 secs   av.it.:  15.4
      thresh= 5.571E-08 alpha_mix =  0.300 |ddv_scf|^2 =  3.539E-14

      iter #  12 total cpu time :  6445.8 secs   av.it.:  16.4
      thresh= 1.881E-08 alpha_mix =  0.300 |ddv_scf|^2 =  1.353E-14

      iter #  13 total cpu time :  6483.2 secs   av.it.:  15.8
      thresh= 1.163E-08 alpha_mix =  0.300 |ddv_scf|^2 =  1.907E-15

     End of self-consistent calculation

     Convergence has been achieved 


     Representation #  14 mode #  14

     Self-consistent Calculation

      iter #   1 total cpu time :  6533.1 secs   av.it.:   7.8
      thresh= 1.000E-02 alpha_mix =  0.300 |ddv_scf|^2 =  1.002E-05

      iter #   2 total cpu time :  6564.4 secs   av.it.:  15.4
      thresh= 3.166E-04 alpha_mix =  0.300 |ddv_scf|^2 =  1.356E-04

      iter #   3 total cpu time :  6596.3 secs   av.it.:  13.1
      thresh= 1.165E-03 alpha_mix =  0.300 |ddv_scf|^2 =  5.163E-07

      iter #   4 total cpu time :  6628.1 secs   av.it.:  14.3
      thresh= 7.185E-05 alpha_mix =  0.300 |ddv_scf|^2 =  2.180E-08

      iter #   5 total cpu time :  6662.0 secs   av.it.:  15.0
      thresh= 1.476E-05 alpha_mix =  0.300 |ddv_scf|^2 =  3.697E-10

      iter #   6 total cpu time :  6697.6 secs   av.it.:  16.8
      thresh= 1.923E-06 alpha_mix =  0.300 |ddv_scf|^2 =  3.096E-11

      iter #   7 total cpu time :  6731.3 secs   av.it.:  16.9
      thresh= 5.565E-07 alpha_mix =  0.300 |ddv_scf|^2 =  2.826E-11

      iter #   8 total cpu time :  6764.9 secs   av.it.:  14.3
      thresh= 5.316E-07 alpha_mix =  0.300 |ddv_scf|^2 =  1.146E-11

      iter #   9 total cpu time :  6801.2 secs   av.it.:  15.6
      thresh= 3.385E-07 alpha_mix =  0.300 |ddv_scf|^2 =  4.663E-13

      iter #  10 total cpu time :  6833.0 secs   av.it.:  16.6
      thresh= 6.829E-08 alpha_mix =  0.300 |ddv_scf|^2 =  1.097E-12

      iter #  11 total cpu time :  6866.9 secs   av.it.:  15.1
      thresh= 1.047E-07 alpha_mix =  0.300 |ddv_scf|^2 =  4.613E-14

      iter #  12 total cpu time :  6903.4 secs   av.it.:  16.5
      thresh= 2.148E-08 alpha_mix =  0.300 |ddv_scf|^2 =  4.594E-14

      iter #  13 total cpu time :  6939.7 secs   av.it.:  15.7
      thresh= 2.143E-08 alpha_mix =  0.300 |ddv_scf|^2 =  5.028E-14

      iter #  14 total cpu time :  6972.9 secs   av.it.:  14.7
      thresh= 2.242E-08 alpha_mix =  0.300 |ddv_scf|^2 =  3.049E-15

     End of self-consistent calculation

     Convergence has been achieved 


     Representation #  15 mode #  15

     Self-consistent Calculation

      iter #   1 total cpu time :  7020.9 secs   av.it.:   7.7
      thresh= 1.000E-02 alpha_mix =  0.300 |ddv_scf|^2 =  6.864E-06

      iter #   2 total cpu time :  7052.2 secs   av.it.:  15.5
      thresh= 2.620E-04 alpha_mix =  0.300 |ddv_scf|^2 =  1.040E-04

      iter #   3 total cpu time :  7080.9 secs   av.it.:  13.0
      thresh= 1.020E-03 alpha_mix =  0.300 |ddv_scf|^2 =  6.363E-08

      iter #   4 total cpu time :  7112.1 secs   av.it.:  15.1
      thresh= 2.523E-05 alpha_mix =  0.300 |ddv_scf|^2 =  1.583E-09

      iter #   5 total cpu time :  7146.3 secs   av.it.:  16.4
      thresh= 3.979E-06 alpha_mix =  0.300 |ddv_scf|^2 =  4.091E-10

      iter #   6 total cpu time :  7180.0 secs   av.it.:  16.5
      thresh= 2.023E-06 alpha_mix =  0.300 |ddv_scf|^2 =  3.555E-11

      iter #   7 total cpu time :  7218.8 secs   av.it.:  16.8
      thresh= 5.962E-07 alpha_mix =  0.300 |ddv_scf|^2 =  3.867E-12

      iter #   8 total cpu time :  7256.0 secs   av.it.:  17.0
      thresh= 1.966E-07 alpha_mix =  0.300 |ddv_scf|^2 =  1.753E-12

      iter #   9 total cpu time :  7296.4 secs   av.it.:  15.7
      thresh= 1.324E-07 alpha_mix =  0.300 |ddv_scf|^2 =  7.791E-12

      iter #  10 total cpu time :  7334.6 secs   av.it.:  14.7
      thresh= 2.791E-07 alpha_mix =  0.300 |ddv_scf|^2 =  5.704E-14

      iter #  11 total cpu time :  7373.7 secs   av.it.:  17.0
      thresh= 2.388E-08 alpha_mix =  0.300 |ddv_scf|^2 =  1.366E-13

      iter #  12 total cpu time :  7412.5 secs   av.it.:  14.3
      thresh= 3.696E-08 alpha_mix =  0.300 |ddv_scf|^2 =  2.091E-14

      iter #  13 total cpu time :  7453.5 secs   av.it.:  15.7
      thresh= 1.446E-08 alpha_mix =  0.300 |ddv_scf|^2 =  9.670E-15

     End of self-consistent calculation

     Convergence has been achieved 


     Representation #  16 mode #  16

     Self-consistent Calculation

      iter #   1 total cpu time :  7504.6 secs   av.it.:   8.1
      thresh= 1.000E-02 alpha_mix =  0.300 |ddv_scf|^2 =  1.118E-05

      iter #   2 total cpu time :  7537.7 secs   av.it.:  15.5
      thresh= 3.344E-04 alpha_mix =  0.300 |ddv_scf|^2 =  1.620E-04

      iter #   3 total cpu time :  7570.4 secs   av.it.:  13.0
      thresh= 1.273E-03 alpha_mix =  0.300 |ddv_scf|^2 =  2.446E-07

      iter #   4 total cpu time :  7602.6 secs   av.it.:  14.8
      thresh= 4.945E-05 alpha_mix =  0.300 |ddv_scf|^2 =  1.938E-08

      iter #   5 total cpu time :  7634.8 secs   av.it.:  15.4
      thresh= 1.392E-05 alpha_mix =  0.300 |ddv_scf|^2 =  8.272E-10

      iter #   6 total cpu time :  7671.5 secs   av.it.:  16.4
      thresh= 2.876E-06 alpha_mix =  0.300 |ddv_scf|^2 =  3.761E-11

      iter #   7 total cpu time :  7704.7 secs   av.it.:  17.0
      thresh= 6.133E-07 alpha_mix =  0.300 |ddv_scf|^2 =  1.112E-11

      iter #   8 total cpu time :  7743.1 secs   av.it.:  16.1
      thresh= 3.335E-07 alpha_mix =  0.300 |ddv_scf|^2 =  5.460E-11

      iter #   9 total cpu time :  7783.9 secs   av.it.:  14.3
      thresh= 7.389E-07 alpha_mix =  0.300 |ddv_scf|^2 =  1.892E-12

      iter #  10 total cpu time :  7817.5 secs   av.it.:  16.1
      thresh= 1.375E-07 alpha_mix =  0.300 |ddv_scf|^2 =  1.966E-13

      iter #  11 total cpu time :  7854.5 secs   av.it.:  16.4
      thresh= 4.434E-08 alpha_mix =  0.300 |ddv_scf|^2 =  1.077E-13

      iter #  12 total cpu time :  7893.0 secs   av.it.:  15.4
      thresh= 3.282E-08 alpha_mix =  0.300 |ddv_scf|^2 =  1.431E-13

      iter #  13 total cpu time :  7929.7 secs   av.it.:  14.2
      thresh= 3.782E-08 alpha_mix =  0.300 |ddv_scf|^2 =  3.645E-14

      iter #  14 total cpu time :  7967.5 secs   av.it.:  15.1
      thresh= 1.909E-08 alpha_mix =  0.300 |ddv_scf|^2 =  9.657E-16

     End of self-consistent calculation

     Convergence has been achieved 


     Representation #  17 mode #  17

     Self-consistent Calculation

      iter #   1 total cpu time :  8012.5 secs   av.it.:   7.7
      thresh= 1.000E-02 alpha_mix =  0.300 |ddv_scf|^2 =  4.700E-07

      iter #   2 total cpu time :  8044.0 secs   av.it.:  16.2
      thresh= 6.856E-05 alpha_mix =  0.300 |ddv_scf|^2 =  6.182E-06

      iter #   3 total cpu time :  8077.5 secs   av.it.:  13.0
      thresh= 2.486E-04 alpha_mix =  0.300 |ddv_scf|^2 =  1.890E-08

      iter #   4 total cpu time :  8112.4 secs   av.it.:  16.1
      thresh= 1.375E-05 alpha_mix =  0.300 |ddv_scf|^2 =  9.024E-09

      iter #   5 total cpu time :  8145.3 secs   av.it.:  16.1
      thresh= 9.500E-06 alpha_mix =  0.300 |ddv_scf|^2 =  1.403E-10

      iter #   6 total cpu time :  8182.6 secs   av.it.:  16.9
      thresh= 1.184E-06 alpha_mix =  0.300 |ddv_scf|^2 =  1.769E-11

      iter #   7 total cpu time :  8219.9 secs   av.it.:  16.9
      thresh= 4.206E-07 alpha_mix =  0.300 |ddv_scf|^2 =  9.406E-11

      iter #   8 total cpu time :  8255.6 secs   av.it.:  13.5
      thresh= 9.699E-07 alpha_mix =  0.300 |ddv_scf|^2 =  2.544E-12

      iter #   9 total cpu time :  8292.2 secs   av.it.:  16.9
      thresh= 1.595E-07 alpha_mix =  0.300 |ddv_scf|^2 =  2.420E-12

      iter #  10 total cpu time :  8332.3 secs   av.it.:  14.3
      thresh= 1.556E-07 alpha_mix =  0.300 |ddv_scf|^2 =  7.495E-13

      iter #  11 total cpu time :  8371.6 secs   av.it.:  15.7
      thresh= 8.658E-08 alpha_mix =  0.300 |ddv_scf|^2 =  3.400E-14

      iter #  12 total cpu time :  8408.0 secs   av.it.:  16.8
      thresh= 1.844E-08 alpha_mix =  0.300 |ddv_scf|^2 =  5.730E-14

      iter #  13 total cpu time :  8445.4 secs   av.it.:  14.5
      thresh= 2.394E-08 alpha_mix =  0.300 |ddv_scf|^2 =  1.953E-15

     End of self-consistent calculation

     Convergence has been achieved 


     Representation #  18 mode #  18

     Self-consistent Calculation

      iter #   1 total cpu time :  8495.2 secs   av.it.:   7.9
      thresh= 1.000E-02 alpha_mix =  0.300 |ddv_scf|^2 =  7.354E-06

      iter #   2 total cpu time :  8527.8 secs   av.it.:  15.5
      thresh= 2.712E-04 alpha_mix =  0.300 |ddv_scf|^2 =  1.154E-04

      iter #   3 total cpu time :  8563.6 secs   av.it.:  13.0
      thresh= 1.074E-03 alpha_mix =  0.300 |ddv_scf|^2 =  2.030E-08

      iter #   4 total cpu time :  8598.0 secs   av.it.:  16.0
      thresh= 1.425E-05 alpha_mix =  0.300 |ddv_scf|^2 =  1.096E-08

      iter #   5 total cpu time :  8633.1 secs   av.it.:  15.1
      thresh= 1.047E-05 alpha_mix =  0.300 |ddv_scf|^2 =  4.953E-10

      iter #   6 total cpu time :  8668.9 secs   av.it.:  16.3
      thresh= 2.226E-06 alpha_mix =  0.300 |ddv_scf|^2 =  3.299E-11

      iter #   7 total cpu time :  8710.1 secs   av.it.:  17.0
      thresh= 5.744E-07 alpha_mix =  0.300 |ddv_scf|^2 =  4.603E-12

      iter #   8 total cpu time :  8751.7 secs   av.it.:  17.3
      thresh= 2.146E-07 alpha_mix =  0.300 |ddv_scf|^2 =  4.461E-13

      iter #   9 total cpu time :  8791.7 secs   av.it.:  16.4
      thresh= 6.679E-08 alpha_mix =  0.300 |ddv_scf|^2 =  4.089E-12

      iter #  10 total cpu time :  8831.3 secs   av.it.:  13.8
      thresh= 2.022E-07 alpha_mix =  0.300 |ddv_scf|^2 =  1.295E-13

      iter #  11 total cpu time :  8872.1 secs   av.it.:  16.1
      thresh= 3.599E-08 alpha_mix =  0.300 |ddv_scf|^2 =  5.802E-13

      iter #  12 total cpu time :  8908.3 secs   av.it.:  15.0
      thresh= 7.617E-08 alpha_mix =  0.300 |ddv_scf|^2 =  8.688E-15

     End of self-consistent calculation

     Convergence has been achieved 


     Representation #  19 mode #  19

     Self-consistent Calculation

      iter #   1 total cpu time :  8956.5 secs   av.it.:  11.4
      thresh= 1.000E-02 alpha_mix =  0.300 |ddv_scf|^2 =  2.281E-04

      iter #   2 total cpu time :  8989.0 secs   av.it.:  15.4
      thresh= 1.510E-03 alpha_mix =  0.300 |ddv_scf|^2 =  3.033E-03

      iter #   3 total cpu time :  9020.7 secs   av.it.:  13.0
      thresh= 5.508E-03 alpha_mix =  0.300 |ddv_scf|^2 =  1.387E-05

      iter #   4 total cpu time :  9054.2 secs   av.it.:  14.4
      thresh= 3.724E-04 alpha_mix =  0.300 |ddv_scf|^2 =  2.775E-06

      iter #   5 total cpu time :  9087.1 secs   av.it.:  14.0
      thresh= 1.666E-04 alpha_mix =  0.300 |ddv_scf|^2 =  8.115E-09

      iter #   6 total cpu time :  9122.4 secs   av.it.:  16.0
      thresh= 9.008E-06 alpha_mix =  0.300 |ddv_scf|^2 =  1.329E-09

      iter #   7 total cpu time :  9157.1 secs   av.it.:  15.6
      thresh= 3.646E-06 alpha_mix =  0.300 |ddv_scf|^2 =  2.192E-10

      iter #   8 total cpu time :  9192.6 secs   av.it.:  16.3
      thresh= 1.481E-06 alpha_mix =  0.300 |ddv_scf|^2 =  1.367E-10

      iter #   9 total cpu time :  9233.7 secs   av.it.:  15.1
      thresh= 1.169E-06 alpha_mix =  0.300 |ddv_scf|^2 =  1.113E-10

      iter #  10 total cpu time :  9269.0 secs   av.it.:  15.4
      thresh= 1.055E-06 alpha_mix =  0.300 |ddv_scf|^2 =  5.147E-13

      iter #  11 total cpu time :  9304.2 secs   av.it.:  15.8
      thresh= 7.174E-08 alpha_mix =  0.300 |ddv_scf|^2 =  2.056E-13

      iter #  12 total cpu time :  9337.6 secs   av.it.:  15.7
      thresh= 4.535E-08 alpha_mix =  0.300 |ddv_scf|^2 =  1.744E-14

      iter #  13 total cpu time :  9374.9 secs   av.it.:  17.1
      thresh= 1.321E-08 alpha_mix =  0.300 |ddv_scf|^2 =  1.654E-15

     End of self-consistent calculation

     Convergence has been achieved 


     Representation #  20 mode #  20

     Self-consistent Calculation

      iter #   1 total cpu time :  9428.7 secs   av.it.:   7.5
      thresh= 1.000E-02 alpha_mix =  0.300 |ddv_scf|^2 =  2.595E-06

      iter #   2 total cpu time :  9461.1 secs   av.it.:  15.7
      thresh= 1.611E-04 alpha_mix =  0.300 |ddv_scf|^2 =  4.086E-05

      iter #   3 total cpu time :  9490.8 secs   av.it.:  13.0
      thresh= 6.392E-04 alpha_mix =  0.300 |ddv_scf|^2 =  9.237E-09

      iter #   4 total cpu time :  9523.4 secs   av.it.:  16.3
      thresh= 9.611E-06 alpha_mix =  0.300 |ddv_scf|^2 =  6.167E-09

      iter #   5 total cpu time :  9556.7 secs   av.it.:  15.7
      thresh= 7.853E-06 alpha_mix =  0.300 |ddv_scf|^2 =  1.585E-10

      iter #   6 total cpu time :  9591.2 secs   av.it.:  16.8
      thresh= 1.259E-06 alpha_mix =  0.300 |ddv_scf|^2 =  2.616E-11

      iter #   7 total cpu time :  9624.8 secs   av.it.:  17.1
      thresh= 5.115E-07 alpha_mix =  0.300 |ddv_scf|^2 =  3.068E-12

      iter #   8 total cpu time :  9657.2 secs   av.it.:  17.1
      thresh= 1.752E-07 alpha_mix =  0.300 |ddv_scf|^2 =  1.894E-11

      iter #   9 total cpu time :  9691.5 secs   av.it.:  13.7
      thresh= 4.352E-07 alpha_mix =  0.300 |ddv_scf|^2 =  1.780E-12

      iter #  10 total cpu time :  9724.7 secs   av.it.:  15.6
      thresh= 1.334E-07 alpha_mix =  0.300 |ddv_scf|^2 =  3.112E-12

      iter #  11 total cpu time :  9756.1 secs   av.it.:  14.0
      thresh= 1.764E-07 alpha_mix =  0.300 |ddv_scf|^2 =  5.265E-14

      iter #  12 total cpu time :  9786.5 secs   av.it.:  16.6
      thresh= 2.295E-08 alpha_mix =  0.300 |ddv_scf|^2 =  1.126E-14

      iter #  13 total cpu time :  9819.2 secs   av.it.:  16.3
      thresh= 1.061E-08 alpha_mix =  0.300 |ddv_scf|^2 =  2.998E-15

     End of self-consistent calculation

     Convergence has been achieved 


     Representation #  21 mode #  21

     Self-consistent Calculation

      iter #   1 total cpu time :  9868.1 secs   av.it.:   7.1
      thresh= 1.000E-02 alpha_mix =  0.300 |ddv_scf|^2 =  1.131E-08

      iter #   2 total cpu time :  9897.9 secs   av.it.:  16.1
      thresh= 1.064E-05 alpha_mix =  0.300 |ddv_scf|^2 =  3.023E-09

      iter #   3 total cpu time :  9931.3 secs   av.it.:  16.7
      thresh= 5.498E-06 alpha_mix =  0.300 |ddv_scf|^2 =  1.804E-10

      iter #   4 total cpu time :  9964.0 secs   av.it.:  16.9
      thresh= 1.343E-06 alpha_mix =  0.300 |ddv_scf|^2 =  1.089E-11

      iter #   5 total cpu time :  9996.4 secs   av.it.:  17.0
      thresh= 3.300E-07 alpha_mix =  0.300 |ddv_scf|^2 =  5.461E-13

      iter #   6 total cpu time : 10029.3 secs   av.it.:  16.5
      thresh= 7.390E-08 alpha_mix =  0.300 |ddv_scf|^2 =  1.047E-13

      iter #   7 total cpu time : 10061.6 secs   av.it.:  16.9
      thresh= 3.236E-08 alpha_mix =  0.300 |ddv_scf|^2 =  4.723E-15

     End of self-consistent calculation

     Convergence has been achieved 


     Representation #  22 mode #  22

     Self-consistent Calculation

      iter #   1 total cpu time : 10110.8 secs   av.it.:   7.1
      thresh= 1.000E-02 alpha_mix =  0.300 |ddv_scf|^2 =  9.384E-09

      iter #   2 total cpu time : 10140.3 secs   av.it.:  16.1
      thresh= 9.687E-06 alpha_mix =  0.300 |ddv_scf|^2 =  2.912E-09

      iter #   3 total cpu time : 10169.7 secs   av.it.:  16.9
      thresh= 5.396E-06 alpha_mix =  0.300 |ddv_scf|^2 =  9.597E-11

      iter #   4 total cpu time : 10200.7 secs   av.it.:  16.9
      thresh= 9.796E-07 alpha_mix =  0.300 |ddv_scf|^2 =  8.428E-12

      iter #   5 total cpu time : 10232.4 secs   av.it.:  17.0
      thresh= 2.903E-07 alpha_mix =  0.300 |ddv_scf|^2 =  5.021E-13

      iter #   6 total cpu time : 10265.8 secs   av.it.:  16.6
      thresh= 7.086E-08 alpha_mix =  0.300 |ddv_scf|^2 =  8.130E-14

      iter #   7 total cpu time : 10300.9 secs   av.it.:  16.9
      thresh= 2.851E-08 alpha_mix =  0.300 |ddv_scf|^2 =  4.502E-15

     End of self-consistent calculation

     Convergence has been achieved 


     Representation #  23 mode #  23

     Self-consistent Calculation

      iter #   1 total cpu time : 10345.5 secs   av.it.:   7.0
      thresh= 1.000E-02 alpha_mix =  0.300 |ddv_scf|^2 =  1.274E-08

      iter #   2 total cpu time : 10378.9 secs   av.it.:  16.1
      thresh= 1.129E-05 alpha_mix =  0.300 |ddv_scf|^2 =  2.524E-09

      iter #   3 total cpu time : 10414.3 secs   av.it.:  16.6
      thresh= 5.024E-06 alpha_mix =  0.300 |ddv_scf|^2 =  2.190E-10

      iter #   4 total cpu time : 10446.2 secs   av.it.:  16.9
      thresh= 1.480E-06 alpha_mix =  0.300 |ddv_scf|^2 =  1.125E-11

      iter #   5 total cpu time : 10480.7 secs   av.it.:  16.9
      thresh= 3.354E-07 alpha_mix =  0.300 |ddv_scf|^2 =  5.999E-13

      iter #   6 total cpu time : 10513.5 secs   av.it.:  16.6
      thresh= 7.745E-08 alpha_mix =  0.300 |ddv_scf|^2 =  1.095E-13

      iter #   7 total cpu time : 10546.8 secs   av.it.:  17.0
      thresh= 3.309E-08 alpha_mix =  0.300 |ddv_scf|^2 =  2.533E-15

     End of self-consistent calculation

     Convergence has been achieved 


     Representation #  24 mode #  24

     Self-consistent Calculation

      iter #   1 total cpu time : 10590.7 secs   av.it.:   7.3
      thresh= 1.000E-02 alpha_mix =  0.300 |ddv_scf|^2 =  4.690E-08

      iter #   2 total cpu time : 10622.0 secs   av.it.:  15.9
      thresh= 2.166E-05 alpha_mix =  0.300 |ddv_scf|^2 =  6.362E-09

      iter #   3 total cpu time : 10660.8 secs   av.it.:  16.5
      thresh= 7.977E-06 alpha_mix =  0.300 |ddv_scf|^2 =  3.481E-10

      iter #   4 total cpu time : 10696.0 secs   av.it.:  17.1
      thresh= 1.866E-06 alpha_mix =  0.300 |ddv_scf|^2 =  1.411E-11

      iter #   5 total cpu time : 10727.3 secs   av.it.:  17.0
      thresh= 3.757E-07 alpha_mix =  0.300 |ddv_scf|^2 =  6.884E-13

      iter #   6 total cpu time : 10769.0 secs   av.it.:  16.5
      thresh= 8.297E-08 alpha_mix =  0.300 |ddv_scf|^2 =  1.400E-13

      iter #   7 total cpu time : 10803.4 secs   av.it.:  17.0
      thresh= 3.742E-08 alpha_mix =  0.300 |ddv_scf|^2 =  3.623E-15

     End of self-consistent calculation

     Convergence has been achieved 


     Representation #  25 mode #  25

     Self-consistent Calculation

      iter #   1 total cpu time : 10853.1 secs   av.it.:   7.2
      thresh= 1.000E-02 alpha_mix =  0.300 |ddv_scf|^2 =  4.144E-08

      iter #   2 total cpu time : 10887.7 secs   av.it.:  15.8
      thresh= 2.036E-05 alpha_mix =  0.300 |ddv_scf|^2 =  5.907E-09

      iter #   3 total cpu time : 10922.6 secs   av.it.:  16.5
      thresh= 7.686E-06 alpha_mix =  0.300 |ddv_scf|^2 =  3.119E-10

      iter #   4 total cpu time : 10958.5 secs   av.it.:  17.0
      thresh= 1.766E-06 alpha_mix =  0.300 |ddv_scf|^2 =  1.629E-11

      iter #   5 total cpu time : 10994.0 secs   av.it.:  16.9
      thresh= 4.037E-07 alpha_mix =  0.300 |ddv_scf|^2 =  7.234E-13

      iter #   6 total cpu time : 11031.0 secs   av.it.:  16.4
      thresh= 8.505E-08 alpha_mix =  0.300 |ddv_scf|^2 =  1.342E-13

      iter #   7 total cpu time : 11067.7 secs   av.it.:  17.0
      thresh= 3.663E-08 alpha_mix =  0.300 |ddv_scf|^2 =  4.626E-15

     End of self-consistent calculation

     Convergence has been achieved 


     Representation #  26 mode #  26

     Self-consistent Calculation

      iter #   1 total cpu time : 11121.4 secs   av.it.:   7.2
      thresh= 1.000E-02 alpha_mix =  0.300 |ddv_scf|^2 =  4.144E-08

      iter #   2 total cpu time : 11154.8 secs   av.it.:  15.8
      thresh= 2.036E-05 alpha_mix =  0.300 |ddv_scf|^2 =  5.907E-09

      iter #   3 total cpu time : 11188.6 secs   av.it.:  16.5
      thresh= 7.686E-06 alpha_mix =  0.300 |ddv_scf|^2 =  3.119E-10

      iter #   4 total cpu time : 11219.0 secs   av.it.:  17.0
      thresh= 1.766E-06 alpha_mix =  0.300 |ddv_scf|^2 =  1.629E-11

      iter #   5 total cpu time : 11250.8 secs   av.it.:  16.9
      thresh= 4.037E-07 alpha_mix =  0.300 |ddv_scf|^2 =  7.234E-13

      iter #   6 total cpu time : 11288.5 secs   av.it.:  16.4
      thresh= 8.505E-08 alpha_mix =  0.300 |ddv_scf|^2 =  1.342E-13

      iter #   7 total cpu time : 11326.2 secs   av.it.:  17.0
      thresh= 3.663E-08 alpha_mix =  0.300 |ddv_scf|^2 =  4.626E-15

     End of self-consistent calculation

     Convergence has been achieved 


     Representation #  27 mode #  27

     Self-consistent Calculation

      iter #   1 total cpu time : 11374.5 secs   av.it.:   7.3
      thresh= 1.000E-02 alpha_mix =  0.300 |ddv_scf|^2 =  4.581E-08

      iter #   2 total cpu time : 11403.2 secs   av.it.:  15.9
      thresh= 2.140E-05 alpha_mix =  0.300 |ddv_scf|^2 =  6.371E-09

      iter #   3 total cpu time : 11433.7 secs   av.it.:  16.5
      thresh= 7.982E-06 alpha_mix =  0.300 |ddv_scf|^2 =  3.447E-10

      iter #   4 total cpu time : 11466.7 secs   av.it.:  17.0
      thresh= 1.857E-06 alpha_mix =  0.300 |ddv_scf|^2 =  1.512E-11

      iter #   5 total cpu time : 11499.9 secs   av.it.:  17.1
      thresh= 3.888E-07 alpha_mix =  0.300 |ddv_scf|^2 =  7.565E-13

      iter #   6 total cpu time : 11531.2 secs   av.it.:  16.5
      thresh= 8.698E-08 alpha_mix =  0.300 |ddv_scf|^2 =  1.569E-13

      iter #   7 total cpu time : 11567.5 secs   av.it.:  16.9
      thresh= 3.961E-08 alpha_mix =  0.300 |ddv_scf|^2 =  4.885E-15

     End of self-consistent calculation

     Convergence has been achieved 


     Representation #  28 mode #  28

     Self-consistent Calculation

      iter #   1 total cpu time : 11617.2 secs   av.it.:   6.8
      thresh= 1.000E-02 alpha_mix =  0.300 |ddv_scf|^2 =  6.213E-09

      iter #   2 total cpu time : 11645.9 secs   av.it.:  16.1
      thresh= 7.883E-06 alpha_mix =  0.300 |ddv_scf|^2 =  1.606E-09

      iter #   3 total cpu time : 11677.4 secs   av.it.:  16.7
      thresh= 4.007E-06 alpha_mix =  0.300 |ddv_scf|^2 =  1.366E-10

      iter #   4 total cpu time : 11707.9 secs   av.it.:  16.9
      thresh= 1.169E-06 alpha_mix =  0.300 |ddv_scf|^2 =  8.940E-12

      iter #   5 total cpu time : 11737.8 secs   av.it.:  16.9
      thresh= 2.990E-07 alpha_mix =  0.300 |ddv_scf|^2 =  3.442E-13

      iter #   6 total cpu time : 11776.2 secs   av.it.:  16.7
      thresh= 5.867E-08 alpha_mix =  0.300 |ddv_scf|^2 =  7.341E-14

      iter #   7 total cpu time : 11814.8 secs   av.it.:  17.1
      thresh= 2.709E-08 alpha_mix =  0.300 |ddv_scf|^2 =  1.725E-15

     End of self-consistent calculation

     Convergence has been achieved 


     Representation #  29 mode #  29

     Self-consistent Calculation

      iter #   1 total cpu time : 11868.0 secs   av.it.:   7.3
      thresh= 1.000E-02 alpha_mix =  0.300 |ddv_scf|^2 =  4.690E-08

      iter #   2 total cpu time : 11909.8 secs   av.it.:  15.9
      thresh= 2.166E-05 alpha_mix =  0.300 |ddv_scf|^2 =  6.362E-09

      iter #   3 total cpu time : 11946.7 secs   av.it.:  16.5
      thresh= 7.977E-06 alpha_mix =  0.300 |ddv_scf|^2 =  3.481E-10

      iter #   4 total cpu time : 11988.8 secs   av.it.:  17.1
      thresh= 1.866E-06 alpha_mix =  0.300 |ddv_scf|^2 =  1.411E-11

      iter #   5 total cpu time : 12025.9 secs   av.it.:  17.0
      thresh= 3.757E-07 alpha_mix =  0.300 |ddv_scf|^2 =  6.884E-13

      iter #   6 total cpu time : 12059.9 secs   av.it.:  16.5
      thresh= 8.297E-08 alpha_mix =  0.300 |ddv_scf|^2 =  1.400E-13

      iter #   7 total cpu time : 12104.3 secs   av.it.:  17.0
      thresh= 3.742E-08 alpha_mix =  0.300 |ddv_scf|^2 =  3.623E-15

     End of self-consistent calculation

     Convergence has been achieved 


     Representation #  30 mode #  30

     Self-consistent Calculation

      iter #   1 total cpu time : 12157.5 secs   av.it.:   7.3
      thresh= 1.000E-02 alpha_mix =  0.300 |ddv_scf|^2 =  4.581E-08

      iter #   2 total cpu time : 12196.8 secs   av.it.:  15.9
      thresh= 2.140E-05 alpha_mix =  0.300 |ddv_scf|^2 =  6.371E-09

      iter #   3 total cpu time : 12228.8 secs   av.it.:  16.5
      thresh= 7.982E-06 alpha_mix =  0.300 |ddv_scf|^2 =  3.447E-10

      iter #   4 total cpu time : 12269.5 secs   av.it.:  17.0
      thresh= 1.857E-06 alpha_mix =  0.300 |ddv_scf|^2 =  1.512E-11

      iter #   5 total cpu time : 12306.3 secs   av.it.:  17.1
      thresh= 3.888E-07 alpha_mix =  0.300 |ddv_scf|^2 =  7.565E-13

      iter #   6 total cpu time : 12342.6 secs   av.it.:  16.5
      thresh= 8.698E-08 alpha_mix =  0.300 |ddv_scf|^2 =  1.569E-13

      iter #   7 total cpu time : 12379.4 secs   av.it.:  16.9
      thresh= 3.961E-08 alpha_mix =  0.300 |ddv_scf|^2 =  4.885E-15

     End of self-consistent calculation

     Convergence has been achieved 


     Representation #  31 mode #  31

     Self-consistent Calculation

      iter #   1 total cpu time : 12431.3 secs   av.it.:   7.0
      thresh= 1.000E-02 alpha_mix =  0.300 |ddv_scf|^2 =  8.307E-09

      iter #   2 total cpu time : 12465.8 secs   av.it.:  16.1
      thresh= 9.114E-06 alpha_mix =  0.300 |ddv_scf|^2 =  2.128E-09

      iter #   3 total cpu time : 12503.3 secs   av.it.:  16.7
      thresh= 4.613E-06 alpha_mix =  0.300 |ddv_scf|^2 =  1.524E-10

      iter #   4 total cpu time : 12536.1 secs   av.it.:  16.9
      thresh= 1.235E-06 alpha_mix =  0.300 |ddv_scf|^2 =  1.023E-11

      iter #   5 total cpu time : 12577.2 secs   av.it.:  17.0
      thresh= 3.199E-07 alpha_mix =  0.300 |ddv_scf|^2 =  3.855E-13

      iter #   6 total cpu time : 12619.6 secs   av.it.:  16.6
      thresh= 6.209E-08 alpha_mix =  0.300 |ddv_scf|^2 =  8.735E-14

      iter #   7 total cpu time : 12660.2 secs   av.it.:  17.1
      thresh= 2.956E-08 alpha_mix =  0.300 |ddv_scf|^2 =  2.354E-15

     End of self-consistent calculation

     Convergence has been achieved 


     Representation #  32 mode #  32

     Self-consistent Calculation

      iter #   1 total cpu time : 12709.3 secs   av.it.:  10.8
      thresh= 1.000E-02 alpha_mix =  0.300 |ddv_scf|^2 =  2.999E-06

      iter #   2 total cpu time : 12759.6 secs   av.it.:  15.5
      thresh= 1.732E-04 alpha_mix =  0.300 |ddv_scf|^2 =  3.053E-07

      iter #   3 total cpu time : 12796.6 secs   av.it.:  16.1
      thresh= 5.525E-05 alpha_mix =  0.300 |ddv_scf|^2 =  3.617E-09

      iter #   4 total cpu time : 12831.1 secs   av.it.:  16.7
      thresh= 6.014E-06 alpha_mix =  0.300 |ddv_scf|^2 =  1.432E-10

      iter #   5 total cpu time : 12868.9 secs   av.it.:  16.5
      thresh= 1.197E-06 alpha_mix =  0.300 |ddv_scf|^2 =  2.064E-11

      iter #   6 total cpu time : 12903.0 secs   av.it.:  16.9
      thresh= 4.543E-07 alpha_mix =  0.300 |ddv_scf|^2 =  6.975E-13

      iter #   7 total cpu time : 12943.5 secs   av.it.:  16.9
      thresh= 8.351E-08 alpha_mix =  0.300 |ddv_scf|^2 =  2.572E-14

      iter #   8 total cpu time : 12980.9 secs   av.it.:  15.9
      thresh= 1.604E-08 alpha_mix =  0.300 |ddv_scf|^2 =  9.172E-15

     End of self-consistent calculation

     Convergence has been achieved 


     Representation #  33 mode #  33

     Self-consistent Calculation

      iter #   1 total cpu time : 13027.3 secs   av.it.:   7.1
      thresh= 1.000E-02 alpha_mix =  0.300 |ddv_scf|^2 =  1.679E-08

      iter #   2 total cpu time : 13060.1 secs   av.it.:  16.1
      thresh= 1.296E-05 alpha_mix =  0.300 |ddv_scf|^2 =  3.153E-09

      iter #   3 total cpu time : 13093.7 secs   av.it.:  16.6
      thresh= 5.615E-06 alpha_mix =  0.300 |ddv_scf|^2 =  2.494E-10

      iter #   4 total cpu time : 13128.4 secs   av.it.:  17.0
      thresh= 1.579E-06 alpha_mix =  0.300 |ddv_scf|^2 =  1.295E-11

      iter #   5 total cpu time : 13165.5 secs   av.it.:  17.0
      thresh= 3.598E-07 alpha_mix =  0.300 |ddv_scf|^2 =  5.499E-13

      iter #   6 total cpu time : 13201.9 secs   av.it.:  16.4
      thresh= 7.415E-08 alpha_mix =  0.300 |ddv_scf|^2 =  1.209E-13

      iter #   7 total cpu time : 13248.0 secs   av.it.:  17.0
      thresh= 3.477E-08 alpha_mix =  0.300 |ddv_scf|^2 =  3.246E-15

     End of self-consistent calculation

     Convergence has been achieved 
 
     Number of q in the star =   24
     List of q in the star:
          1   0.353553391   0.117851130  -0.117851130
          2  -0.353553391   0.117851130   0.117851130
          3   0.353553391   0.117851130   0.117851130
          4   0.353553391  -0.117851130   0.117851130
          5   0.353553391  -0.117851130  -0.117851130
          6  -0.353553391  -0.117851130   0.117851130
          7  -0.353553391   0.117851130  -0.117851130
          8  -0.353553391  -0.117851130  -0.117851130
          9   0.117851130  -0.117851130   0.353553391
         10  -0.117851130  -0.117851130  -0.353553391
         11  -0.117851130  -0.117851130   0.353553391
         12  -0.117851130   0.117851130   0.353553391
         13  -0.117851130   0.353553391   0.117851130
         14  -0.117851130  -0.353553391  -0.117851130
         15   0.117851130  -0.353553391   0.117851130
         16  -0.117851130  -0.353553391   0.117851130
         17   0.117851130  -0.353553391  -0.117851130
         18   0.117851130   0.117851130  -0.353553391
         19  -0.117851130   0.353553391  -0.117851130
         20   0.117851130   0.353553391   0.117851130
         21   0.117851130  -0.117851130  -0.353553391
         22   0.117851130   0.353553391  -0.117851130
         23  -0.117851130   0.117851130  -0.353553391
         24   0.117851130   0.117851130   0.353553391

     Diagonalizing the dynamical matrix

     q = (    0.353553391   0.117851130  -0.117851130 ) 

 **************************************************************************
     freq (    1) =       5.800066 [THz] =     193.469370 [cm-1]
     freq (    2) =       6.157749 [THz] =     205.400399 [cm-1]
     freq (    3) =       8.571456 [THz] =     285.912987 [cm-1]
     freq (    4) =      22.318569 [THz] =     744.467327 [cm-1]
     freq (    5) =      24.471545 [THz] =     816.282885 [cm-1]
     freq (    6) =      24.811378 [THz] =     827.618489 [cm-1]
     freq (    7) =      27.877338 [THz] =     929.887887 [cm-1]
     freq (    8) =      28.115263 [THz] =     937.824215 [cm-1]
     freq (    9) =      33.738189 [THz] =    1125.384848 [cm-1]
     freq (   10) =      35.245683 [THz] =    1175.669449 [cm-1]
     freq (   11) =      36.390504 [THz] =    1213.856562 [cm-1]
     freq (   12) =      38.222635 [THz] =    1274.969862 [cm-1]
     freq (   13) =      38.360451 [THz] =    1279.566910 [cm-1]
     freq (   14) =      40.247650 [THz] =    1342.517082 [cm-1]
     freq (   15) =      41.227253 [THz] =    1375.193128 [cm-1]
     freq (   16) =      42.415897 [THz] =    1414.842037 [cm-1]
     freq (   17) =      42.787206 [THz] =    1427.227564 [cm-1]
     freq (   18) =      43.256127 [THz] =    1442.869073 [cm-1]
     freq (   19) =      44.057848 [THz] =    1469.611634 [cm-1]
     freq (   20) =      44.084283 [THz] =    1470.493405 [cm-1]
     freq (   21) =      44.651521 [THz] =    1489.414427 [cm-1]
     freq (   22) =      46.223924 [THz] =    1541.864126 [cm-1]
     freq (   23) =      47.113058 [THz] =    1571.522447 [cm-1]
     freq (   24) =      50.057852 [THz] =    1669.750205 [cm-1]
     freq (   25) =      51.743557 [THz] =    1725.979268 [cm-1]
     freq (   26) =      52.360991 [THz] =    1746.574655 [cm-1]
     freq (   27) =      53.004125 [THz] =    1768.027307 [cm-1]
     freq (   28) =      53.935996 [THz] =    1799.111180 [cm-1]
     freq (   29) =      53.972903 [THz] =    1800.342242 [cm-1]
     freq (   30) =      54.270729 [THz] =    1810.276647 [cm-1]
     freq (   31) =      57.668265 [THz] =    1923.606265 [cm-1]
     freq (   32) =      59.777507 [THz] =    1993.963001 [cm-1]
     freq (   33) =      67.704726 [THz] =    2258.386565 [cm-1]
 **************************************************************************

     Mode symmetry, C_s (m)     point group:

     freq (   1-   1) =        193.5  [cm-1]   --> A''                
     freq (   2-   2) =        205.4  [cm-1]   --> A'                 
     freq (   3-   3) =        285.9  [cm-1]   --> A'                 
     freq (   4-   4) =        744.5  [cm-1]   --> A'                 
     freq (   5-   5) =        816.3  [cm-1]   --> A''                
     freq (   6-   6) =        827.6  [cm-1]   --> A'                 
     freq (   7-   7) =        929.9  [cm-1]   --> A''                
     freq (   8-   8) =        937.8  [cm-1]   --> A'                 
     freq (   9-   9) =       1125.4  [cm-1]   --> A'                 
     freq (  10-  10) =       1175.7  [cm-1]   --> A''                
     freq (  11-  11) =       1213.9  [cm-1]   --> A'                 
     freq (  12-  12) =       1275.0  [cm-1]   --> A'                 
     freq (  13-  13) =       1279.6  [cm-1]   --> A''                
     freq (  14-  14) =       1342.5  [cm-1]   --> A''                
     freq (  15-  15) =       1375.2  [cm-1]   --> A'                 
     freq (  16-  16) =       1414.8  [cm-1]   --> A''                
     freq (  17-  17) =       1427.2  [cm-1]   --> A'                 
     freq (  18-  18) =       1442.9  [cm-1]   --> A''                
     freq (  19-  19) =       1469.6  [cm-1]   --> A'                 
     freq (  20-  20) =       1470.5  [cm-1]   --> A''                
     freq (  21-  21) =       1489.4  [cm-1]   --> A'                 
     freq (  22-  22) =       1541.9  [cm-1]   --> A'                 
     freq (  23-  23) =       1571.5  [cm-1]   --> A''                
     freq (  24-  24) =       1669.8  [cm-1]   --> A''                
     freq (  25-  25) =       1726.0  [cm-1]   --> A'                 
     freq (  26-  26) =       1746.6  [cm-1]   --> A'                 
     freq (  27-  27) =       1768.0  [cm-1]   --> A''                
     freq (  28-  28) =       1799.1  [cm-1]   --> A''                
     freq (  29-  29) =       1800.3  [cm-1]   --> A'                 
     freq (  30-  30) =       1810.3  [cm-1]   --> A'                 
     freq (  31-  31) =       1923.6  [cm-1]   --> A'                 
     freq (  32-  32) =       1994.0  [cm-1]   --> A'                 
     freq (  33-  33) =       2258.4  [cm-1]   --> A'                 
     Electron-phonon interaction  ...

     Gaussian Broadening:   0.005 Ry, ngauss=   0
     DOS =  4.794684 states/spin/Ry/Unit Cell at Ef= 22.110855 eV
     lambda(    1)=  0.0068   gamma=    1.04 GHz
     lambda(    2)=  0.0037   gamma=    0.65 GHz
     lambda(    3)=  0.0278   gamma=    9.35 GHz
     lambda(    4)=  0.0159   gamma=   36.26 GHz
     lambda(    5)=  0.0258   gamma=   70.77 GHz
     lambda(    6)=  0.0137   gamma=   38.67 GHz
     lambda(    7)=  0.0048   gamma=   16.94 GHz
     lambda(    8)=  0.0129   gamma=   46.59 GHz
     lambda(    9)=  0.0082   gamma=   42.74 GHz
     lambda(   10)=  0.0172   gamma=   97.74 GHz
     lambda(   11)=  0.0125   gamma=   75.76 GHz
     lambda(   12)=  0.0082   gamma=   55.08 GHz
     lambda(   13)=  0.0083   gamma=   55.72 GHz
     lambda(   14)=  0.0083   gamma=   61.28 GHz
     lambda(   15)=  0.0157   gamma=  122.06 GHz
     lambda(   16)=  0.0147   gamma=  120.95 GHz
     lambda(   17)=  0.0200   gamma=  167.60 GHz
     lambda(   18)=  0.0159   gamma=  136.08 GHz
     lambda(   19)=  0.0099   gamma=   88.04 GHz
     lambda(   20)=  0.0192   gamma=  171.09 GHz
     lambda(   21)=  0.0182   gamma=  166.43 GHz
     lambda(   22)=  0.0137   gamma=  134.43 GHz
     lambda(   23)=  0.0155   gamma=  157.48 GHz
     lambda(   24)=  0.0065   gamma=   74.15 GHz
     lambda(   25)=  0.0132   gamma=  162.10 GHz
     lambda(   26)=  0.0180   gamma=  225.44 GHz
     lambda(   27)=  0.0087   gamma=  111.41 GHz
     lambda(   28)=  0.0088   gamma=  117.65 GHz
     lambda(   29)=  0.0078   gamma=  103.92 GHz
     lambda(   30)=  0.0038   gamma=   51.89 GHz
     lambda(   31)=  0.0156   gamma=  237.64 GHz
     lambda(   32)=  0.0026   gamma=   43.11 GHz
     lambda(   33)=  0.0051   gamma=  107.03 GHz
     Gaussian Broadening:   0.010 Ry, ngauss=   0
     DOS =  4.491154 states/spin/Ry/Unit Cell at Ef= 22.118081 eV
     lambda(    1)=  0.0081   gamma=    1.18 GHz
     lambda(    2)=  0.0070   gamma=    1.14 GHz
     lambda(    3)=  0.0245   gamma=    7.73 GHz
     lambda(    4)=  0.0500   gamma=  106.73 GHz
     lambda(    5)=  0.0323   gamma=   82.85 GHz
     lambda(    6)=  0.0215   gamma=   56.66 GHz
     lambda(    7)=  0.0051   gamma=   17.03 GHz
     lambda(    8)=  0.0075   gamma=   25.59 GHz
     lambda(    9)=  0.0156   gamma=   76.00 GHz
     lambda(   10)=  0.0275   gamma=  146.26 GHz
     lambda(   11)=  0.0164   gamma=   92.88 GHz
     lambda(   12)=  0.0129   gamma=   80.95 GHz
     lambda(   13)=  0.0076   gamma=   47.84 GHz
     lambda(   14)=  0.0124   gamma=   85.97 GHz
     lambda(   15)=  0.0164   gamma=  119.34 GHz
     lambda(   16)=  0.0127   gamma=   97.77 GHz
     lambda(   17)=  0.0183   gamma=  144.04 GHz
     lambda(   18)=  0.0174   gamma=  139.31 GHz
     lambda(   19)=  0.0142   gamma=  117.93 GHz
     lambda(   20)=  0.0123   gamma=  102.32 GHz
     lambda(   21)=  0.0170   gamma=  145.17 GHz
     lambda(   22)=  0.0108   gamma=   99.14 GHz
     lambda(   23)=  0.0166   gamma=  158.14 GHz
     lambda(   24)=  0.0066   gamma=   71.06 GHz
     lambda(   25)=  0.0123   gamma=  141.27 GHz
     lambda(   26)=  0.0140   gamma=  164.46 GHz
     lambda(   27)=  0.0111   gamma=  133.33 GHz
     lambda(   28)=  0.0104   gamma=  129.68 GHz
     lambda(   29)=  0.0125   gamma=  156.64 GHz
     lambda(   30)=  0.0075   gamma=   94.80 GHz
     lambda(   31)=  0.0136   gamma=  194.09 GHz
     lambda(   32)=  0.0066   gamma=  101.02 GHz
     lambda(   33)=  0.0068   gamma=  132.86 GHz
     Gaussian Broadening:   0.015 Ry, ngauss=   0
     DOS =  4.448291 states/spin/Ry/Unit Cell at Ef= 22.124358 eV
     lambda(    1)=  0.0091   gamma=    1.31 GHz
     lambda(    2)=  0.0093   gamma=    1.50 GHz
     lambda(    3)=  0.0207   gamma=    6.45 GHz
     lambda(    4)=  0.0770   gamma=  162.82 GHz
     lambda(    5)=  0.0345   gamma=   87.67 GHz
     lambda(    6)=  0.0252   gamma=   65.92 GHz
     lambda(    7)=  0.0055   gamma=   18.08 GHz
     lambda(    8)=  0.0066   gamma=   22.24 GHz
     lambda(    9)=  0.0247   gamma=  119.39 GHz
     lambda(   10)=  0.0346   gamma=  182.39 GHz
     lambda(   11)=  0.0178   gamma=   99.96 GHz
     lambda(   12)=  0.0162   gamma=  100.72 GHz
     lambda(   13)=  0.0083   gamma=   51.94 GHz
     lambda(   14)=  0.0137   gamma=   94.47 GHz
     lambda(   15)=  0.0186   gamma=  134.43 GHz
     lambda(   16)=  0.0120   gamma=   91.64 GHz
     lambda(   17)=  0.0188   gamma=  146.40 GHz
     lambda(   18)=  0.0198   gamma=  157.04 GHz
     lambda(   19)=  0.0149   gamma=  122.89 GHz
     lambda(   20)=  0.0100   gamma=   82.54 GHz
     lambda(   21)=  0.0172   gamma=  146.06 GHz
     lambda(   22)=  0.0105   gamma=   94.91 GHz
     lambda(   23)=  0.0169   gamma=  159.07 GHz
     lambda(   24)=  0.0072   gamma=   76.36 GHz
     lambda(   25)=  0.0125   gamma=  142.38 GHz
     lambda(   26)=  0.0143   gamma=  165.96 GHz
     lambda(   27)=  0.0129   gamma=  153.43 GHz
     lambda(   28)=  0.0106   gamma=  130.77 GHz
     lambda(   29)=  0.0153   gamma=  189.18 GHz
     lambda(   30)=  0.0095   gamma=  118.58 GHz
     lambda(   31)=  0.0141   gamma=  199.88 GHz
     lambda(   32)=  0.0089   gamma=  135.39 GHz
     lambda(   33)=  0.0088   gamma=  170.95 GHz
     Gaussian Broadening:   0.020 Ry, ngauss=   0
     DOS =  4.528357 states/spin/Ry/Unit Cell at Ef= 22.128042 eV
     lambda(    1)=  0.0097   gamma=    1.41 GHz
     lambda(    2)=  0.0100   gamma=    1.64 GHz
     lambda(    3)=  0.0186   gamma=    5.91 GHz
     lambda(    4)=  0.0908   gamma=  195.68 GHz
     lambda(    5)=  0.0354   gamma=   91.68 GHz
     lambda(    6)=  0.0266   gamma=   70.76 GHz
     lambda(    7)=  0.0057   gamma=   19.20 GHz
     lambda(    8)=  0.0067   gamma=   22.92 GHz
     lambda(    9)=  0.0300   gamma=  147.75 GHz
     lambda(   10)=  0.0373   gamma=  200.19 GHz
     lambda(   11)=  0.0184   gamma=  105.35 GHz
     lambda(   12)=  0.0178   gamma=  112.74 GHz
     lambda(   13)=  0.0096   gamma=   60.99 GHz
     lambda(   14)=  0.0139   gamma=   97.28 GHz
     lambda(   15)=  0.0199   gamma=  146.58 GHz
     lambda(   16)=  0.0117   gamma=   91.22 GHz
     lambda(   17)=  0.0193   gamma=  152.98 GHz
     lambda(   18)=  0.0211   gamma=  170.89 GHz
     lambda(   19)=  0.0147   gamma=  123.73 GHz
     lambda(   20)=  0.0095   gamma=   80.12 GHz
     lambda(   21)=  0.0172   gamma=  147.96 GHz
     lambda(   22)=  0.0108   gamma=  100.20 GHz
     lambda(   23)=  0.0171   gamma=  163.96 GHz
     lambda(   24)=  0.0080   gamma=   86.78 GHz
     lambda(   25)=  0.0129   gamma=  148.82 GHz
     lambda(   26)=  0.0152   gamma=  179.85 GHz
     lambda(   27)=  0.0139   gamma=  168.55 GHz
     lambda(   28)=  0.0108   gamma=  136.47 GHz
     lambda(   29)=  0.0165   gamma=  207.77 GHz
     lambda(   30)=  0.0104   gamma=  132.83 GHz
     lambda(   31)=  0.0144   gamma=  207.30 GHz
     lambda(   32)=  0.0098   gamma=  151.13 GHz
     lambda(   33)=  0.0095   gamma=  188.66 GHz
     Gaussian Broadening:   0.025 Ry, ngauss=   0
     DOS =  4.634996 states/spin/Ry/Unit Cell at Ef= 22.128678 eV
     lambda(    1)=  0.0102   gamma=    1.52 GHz
     lambda(    2)=  0.0104   gamma=    1.74 GHz
     lambda(    3)=  0.0180   gamma=    5.84 GHz
     lambda(    4)=  0.0957   gamma=  210.99 GHz
     lambda(    5)=  0.0357   gamma=   94.51 GHz
     lambda(    6)=  0.0270   gamma=   73.47 GHz
     lambda(    7)=  0.0058   gamma=   20.04 GHz
     lambda(    8)=  0.0069   gamma=   24.17 GHz
     lambda(    9)=  0.0325   gamma=  163.73 GHz
     lambda(   10)=  0.0381   gamma=  209.69 GHz
     lambda(   11)=  0.0190   gamma=  111.28 GHz
     lambda(   12)=  0.0189   gamma=  122.38 GHz
     lambda(   13)=  0.0106   gamma=   69.05 GHz
     lambda(   14)=  0.0139   gamma=   99.71 GHz
     lambda(   15)=  0.0206   gamma=  154.87 GHz
     lambda(   16)=  0.0116   gamma=   92.03 GHz
     lambda(   17)=  0.0196   gamma=  158.94 GHz
     lambda(   18)=  0.0216   gamma=  179.28 GHz
     lambda(   19)=  0.0146   gamma=  125.57 GHz
     lambda(   20)=  0.0097   gamma=   83.05 GHz
     lambda(   21)=  0.0171   gamma=  151.26 GHz
     lambda(   22)=  0.0112   gamma=  106.06 GHz
     lambda(   23)=  0.0171   gamma=  168.06 GHz
     lambda(   24)=  0.0088   gamma=   97.08 GHz
     lambda(   25)=  0.0132   gamma=  155.96 GHz
     lambda(   26)=  0.0158   gamma=  192.14 GHz
     lambda(   27)=  0.0143   gamma=  178.07 GHz
     lambda(   28)=  0.0112   gamma=  144.43 GHz
     lambda(   29)=  0.0171   gamma=  221.01 GHz
     lambda(   30)=  0.0109   gamma=  142.72 GHz
     lambda(   31)=  0.0145   gamma=  213.22 GHz
     lambda(   32)=  0.0100   gamma=  157.87 GHz
     lambda(   33)=  0.0098   gamma=  199.81 GHz
     Gaussian Broadening:   0.030 Ry, ngauss=   0
     DOS =  4.755068 states/spin/Ry/Unit Cell at Ef= 22.126761 eV
     lambda(    1)=  0.0108   gamma=    1.66 GHz
     lambda(    2)=  0.0106   gamma=    1.83 GHz
     lambda(    3)=  0.0180   gamma=    6.00 GHz
     lambda(    4)=  0.0960   gamma=  217.23 GHz
     lambda(    5)=  0.0354   gamma=   96.33 GHz
     lambda(    6)=  0.0269   gamma=   75.22 GHz
     lambda(    7)=  0.0059   gamma=   20.86 GHz
     lambda(    8)=  0.0071   gamma=   25.56 GHz
     lambda(    9)=  0.0335   gamma=  172.99 GHz
     lambda(   10)=  0.0384   gamma=  216.83 GHz
     lambda(   11)=  0.0196   gamma=  117.82 GHz
     lambda(   12)=  0.0198   gamma=  131.21 GHz
     lambda(   13)=  0.0114   gamma=   76.27 GHz
     lambda(   14)=  0.0140   gamma=  102.86 GHz
     lambda(   15)=  0.0210   gamma=  161.85 GHz
     lambda(   16)=  0.0114   gamma=   93.39 GHz
     lambda(   17)=  0.0197   gamma=  164.05 GHz
     lambda(   18)=  0.0218   gamma=  185.15 GHz
     lambda(   19)=  0.0145   gamma=  127.73 GHz
     lambda(   20)=  0.0101   gamma=   89.15 GHz
     lambda(   21)=  0.0172   gamma=  156.00 GHz
     lambda(   22)=  0.0115   gamma=  111.53 GHz
     lambda(   23)=  0.0170   gamma=  171.62 GHz
     lambda(   24)=  0.0094   gamma=  107.09 GHz
     lambda(   25)=  0.0134   gamma=  162.70 GHz
     lambda(   26)=  0.0162   gamma=  201.92 GHz
     lambda(   27)=  0.0145   gamma=  184.69 GHz
     lambda(   28)=  0.0116   gamma=  153.43 GHz
     lambda(   29)=  0.0176   gamma=  232.81 GHz
     lambda(   30)=  0.0113   gamma=  151.50 GHz
     lambda(   31)=  0.0144   gamma=  218.16 GHz
     lambda(   32)=  0.0099   gamma=  160.34 GHz
     lambda(   33)=  0.0100   gamma=  208.59 GHz
     Gaussian Broadening:   0.035 Ry, ngauss=   0
     DOS =  4.903732 states/spin/Ry/Unit Cell at Ef= 22.122264 eV
     lambda(    1)=  0.0116   gamma=    1.83 GHz
     lambda(    2)=  0.0110   gamma=    1.95 GHz
     lambda(    3)=  0.0183   gamma=    6.28 GHz
     lambda(    4)=  0.0944   gamma=  220.13 GHz
     lambda(    5)=  0.0350   gamma=   98.09 GHz
     lambda(    6)=  0.0266   gamma=   76.75 GHz
     lambda(    7)=  0.0060   gamma=   21.95 GHz
     lambda(    8)=  0.0074   gamma=   27.23 GHz
     lambda(    9)=  0.0337   gamma=  179.51 GHz
     lambda(   10)=  0.0385   gamma=  224.04 GHz
     lambda(   11)=  0.0202   gamma=  124.97 GHz
     lambda(   12)=  0.0204   gamma=  139.60 GHz
     lambda(   13)=  0.0121   gamma=   83.50 GHz
     lambda(   14)=  0.0141   gamma=  106.89 GHz
     lambda(   15)=  0.0213   gamma=  169.34 GHz
     lambda(   16)=  0.0113   gamma=   95.50 GHz
     lambda(   17)=  0.0198   gamma=  169.32 GHz
     lambda(   18)=  0.0218   gamma=  190.85 GHz
     lambda(   19)=  0.0144   gamma=  130.47 GHz
     lambda(   20)=  0.0108   gamma=   98.04 GHz
     lambda(   21)=  0.0174   gamma=  162.30 GHz
     lambda(   22)=  0.0117   gamma=  117.34 GHz
     lambda(   23)=  0.0170   gamma=  176.23 GHz
     lambda(   24)=  0.0100   gamma=  117.73 GHz
     lambda(   25)=  0.0135   gamma=  169.44 GHz
     lambda(   26)=  0.0164   gamma=  210.89 GHz
     lambda(   27)=  0.0145   gamma=  190.98 GHz
     lambda(   28)=  0.0120   gamma=  163.78 GHz
     lambda(   29)=  0.0180   gamma=  244.96 GHz
     lambda(   30)=  0.0116   gamma=  160.55 GHz
     lambda(   31)=  0.0144   gamma=  223.61 GHz
     lambda(   32)=  0.0096   gamma=  161.42 GHz
     lambda(   33)=  0.0101   gamma=  216.56 GHz
     Gaussian Broadening:   0.040 Ry, ngauss=   0
     DOS =  5.088867 states/spin/Ry/Unit Cell at Ef= 22.114955 eV
     lambda(    1)=  0.0126   gamma=    2.06 GHz
     lambda(    2)=  0.0115   gamma=    2.11 GHz
     lambda(    3)=  0.0186   gamma=    6.65 GHz
     lambda(    4)=  0.0919   gamma=  222.48 GHz
     lambda(    5)=  0.0345   gamma=  100.38 GHz
     lambda(    6)=  0.0263   gamma=   78.53 GHz
     lambda(    7)=  0.0062   gamma=   23.41 GHz
     lambda(    8)=  0.0076   gamma=   29.34 GHz
     lambda(    9)=  0.0335   gamma=  185.30 GHz
     lambda(   10)=  0.0384   gamma=  231.74 GHz
     lambda(   11)=  0.0206   gamma=  132.62 GHz
     lambda(   12)=  0.0208   gamma=  147.76 GHz
     lambda(   13)=  0.0127   gamma=   90.96 GHz
     lambda(   14)=  0.0142   gamma=  111.68 GHz
     lambda(   15)=  0.0215   gamma=  177.96 GHz
     lambda(   16)=  0.0113   gamma=   98.47 GHz
     lambda(   17)=  0.0197   gamma=  175.42 GHz
     lambda(   18)=  0.0217   gamma=  197.37 GHz
     lambda(   19)=  0.0142   gamma=  134.20 GHz
     lambda(   20)=  0.0116   gamma=  109.37 GHz
     lambda(   21)=  0.0176   gamma=  170.25 GHz
     lambda(   22)=  0.0120   gamma=  124.08 GHz
     lambda(   23)=  0.0169   gamma=  182.61 GHz
     lambda(   24)=  0.0106   gamma=  129.50 GHz
     lambda(   25)=  0.0136   gamma=  176.76 GHz
     lambda(   26)=  0.0165   gamma=  220.30 GHz
     lambda(   27)=  0.0145   gamma=  198.07 GHz
     lambda(   28)=  0.0124   gamma=  175.67 GHz
     lambda(   29)=  0.0182   gamma=  257.98 GHz
     lambda(   30)=  0.0119   gamma=  170.25 GHz
     lambda(   31)=  0.0143   gamma=  230.70 GHz
     lambda(   32)=  0.0094   gamma=  162.63 GHz
     lambda(   33)=  0.0101   gamma=  224.40 GHz
     Gaussian Broadening:   0.045 Ry, ngauss=   0
     DOS =  5.309480 states/spin/Ry/Unit Cell at Ef= 22.104685 eV
     lambda(    1)=  0.0136   gamma=    2.32 GHz
     lambda(    2)=  0.0120   gamma=    2.31 GHz
     lambda(    3)=  0.0190   gamma=    7.08 GHz
     lambda(    4)=  0.0892   gamma=  225.16 GHz
     lambda(    5)=  0.0341   gamma=  103.39 GHz
     lambda(    6)=  0.0259   gamma=   80.79 GHz
     lambda(    7)=  0.0064   gamma=   25.21 GHz
     lambda(    8)=  0.0080   gamma=   31.95 GHz
     lambda(    9)=  0.0331   gamma=  191.05 GHz
     lambda(   10)=  0.0380   gamma=  239.64 GHz
     lambda(   11)=  0.0209   gamma=  140.55 GHz
     lambda(   12)=  0.0211   gamma=  156.07 GHz
     lambda(   13)=  0.0132   gamma=   98.49 GHz
     lambda(   14)=  0.0143   gamma=  117.08 GHz
     lambda(   15)=  0.0218   gamma=  187.65 GHz
     lambda(   16)=  0.0112   gamma=  102.22 GHz
     lambda(   17)=  0.0197   gamma=  182.59 GHz
     lambda(   18)=  0.0216   gamma=  204.92 GHz
     lambda(   19)=  0.0141   gamma=  138.97 GHz
     lambda(   20)=  0.0124   gamma=  122.66 GHz
     lambda(   21)=  0.0178   gamma=  179.88 GHz
     lambda(   22)=  0.0122   gamma=  131.90 GHz
     lambda(   23)=  0.0170   gamma=  190.77 GHz
     lambda(   24)=  0.0112   gamma=  142.58 GHz
     lambda(   25)=  0.0136   gamma=  184.94 GHz
     lambda(   26)=  0.0166   gamma=  230.69 GHz
     lambda(   27)=  0.0145   gamma=  206.12 GHz
     lambda(   28)=  0.0128   gamma=  188.90 GHz
     lambda(   29)=  0.0184   gamma=  271.69 GHz
     lambda(   30)=  0.0121   gamma=  180.46 GHz
     lambda(   31)=  0.0142   gamma=  239.75 GHz
     lambda(   32)=  0.0091   gamma=  164.53 GHz
     lambda(   33)=  0.0100   gamma=  232.26 GHz
     Gaussian Broadening:   0.050 Ry, ngauss=   0
     DOS =  5.560451 states/spin/Ry/Unit Cell at Ef= 22.091444 eV
     lambda(    1)=  0.0147   gamma=    2.62 GHz
     lambda(    2)=  0.0127   gamma=    2.56 GHz
     lambda(    3)=  0.0193   gamma=    7.54 GHz
     lambda(    4)=  0.0863   gamma=  228.22 GHz
     lambda(    5)=  0.0337   gamma=  107.04 GHz
     lambda(    6)=  0.0256   gamma=   83.57 GHz
     lambda(    7)=  0.0066   gamma=   27.29 GHz
     lambda(    8)=  0.0083   gamma=   35.01 GHz
     lambda(    9)=  0.0326   gamma=  196.85 GHz
     lambda(   10)=  0.0375   gamma=  247.40 GHz
     lambda(   11)=  0.0211   gamma=  148.61 GHz
     lambda(   12)=  0.0213   gamma=  164.96 GHz
     lambda(   13)=  0.0135   gamma=  105.82 GHz
     lambda(   14)=  0.0143   gamma=  122.92 GHz
     lambda(   15)=  0.0220   gamma=  198.11 GHz
     lambda(   16)=  0.0112   gamma=  106.59 GHz
     lambda(   17)=  0.0196   gamma=  190.88 GHz
     lambda(   18)=  0.0215   gamma=  213.34 GHz
     lambda(   19)=  0.0140   gamma=  144.61 GHz
     lambda(   20)=  0.0133   gamma=  137.41 GHz
     lambda(   21)=  0.0181   gamma=  191.14 GHz
     lambda(   22)=  0.0124   gamma=  140.74 GHz
     lambda(   23)=  0.0170   gamma=  200.43 GHz
     lambda(   24)=  0.0118   gamma=  156.98 GHz
     lambda(   25)=  0.0136   gamma=  193.95 GHz
     lambda(   26)=  0.0166   gamma=  242.20 GHz
     lambda(   27)=  0.0144   gamma=  215.00 GHz
     lambda(   28)=  0.0132   gamma=  203.14 GHz
     lambda(   29)=  0.0185   gamma=  285.74 GHz
     lambda(   30)=  0.0122   gamma=  190.84 GHz
     lambda(   31)=  0.0142   gamma=  250.58 GHz
     lambda(   32)=  0.0088   gamma=  167.10 GHz
     lambda(   33)=  0.0099   gamma=  240.16 GHz
 
 
     Number of q in the star =   24
     List of q in the star:
          1   0.353553391   0.117851130  -0.117851130
          2  -0.353553391   0.117851130   0.117851130
          3   0.353553391   0.117851130   0.117851130
          4   0.353553391  -0.117851130   0.117851130
          5   0.353553391  -0.117851130  -0.117851130
          6  -0.353553391  -0.117851130   0.117851130
          7  -0.353553391   0.117851130  -0.117851130
          8  -0.353553391  -0.117851130  -0.117851130
          9   0.117851130  -0.117851130   0.353553391
         10  -0.117851130  -0.117851130  -0.353553391
         11  -0.117851130  -0.117851130   0.353553391
         12  -0.117851130   0.117851130   0.353553391
         13  -0.117851130   0.353553391   0.117851130
         14  -0.117851130  -0.353553391  -0.117851130
         15   0.117851130  -0.353553391   0.117851130
         16  -0.117851130  -0.353553391   0.117851130
         17   0.117851130  -0.353553391  -0.117851130
         18   0.117851130   0.117851130  -0.353553391
         19  -0.117851130   0.353553391  -0.117851130
         20   0.117851130   0.353553391   0.117851130
         21   0.117851130  -0.117851130  -0.353553391
         22   0.117851130   0.353553391  -0.117851130
         23  -0.117851130   0.117851130  -0.353553391
         24   0.117851130   0.117851130   0.353553391
 
     init_run     :      0.42s CPU      0.58s WALL (       1 calls)
     electrons    :     31.86s CPU     39.71s WALL (       1 calls)

     Called by init_run:
     wfcinit      :      0.00s CPU      0.03s WALL (       1 calls)
     potinit      :      0.20s CPU      0.30s WALL (       1 calls)
     hinit0       :      0.10s CPU      0.11s WALL (       1 calls)

     Called by electrons:
     c_bands      :     31.84s CPU     39.68s WALL (       1 calls)
     v_of_rho     :      0.02s CPU      0.05s WALL (       2 calls)
     newd         :      0.05s CPU      0.10s WALL (       2 calls)
     PAW_pot      :      0.37s CPU      0.40s WALL (       2 calls)

     Called by c_bands:
     init_us_2    :      9.59s CPU     11.13s WALL (  107172 calls)
     cegterg      :     18.11s CPU     19.15s WALL (     598 calls)

     Called by *egterg:
     cdiaghg      :      5.66s CPU      5.92s WALL (    9900 calls)
     h_psi        :   3139.07s CPU   4158.78s WALL ( 1749172 calls)
     s_psi        :     76.76s CPU     83.42s WALL ( 3570448 calls)
     g_psi        :      0.06s CPU      0.06s WALL (    9432 calls)

     Called by h_psi:
     h_psi:calbec :     54.15s CPU     58.72s WALL ( 1749172 calls)
     vloc_psi     :   3031.13s CPU   4041.70s WALL ( 1749172 calls)
     add_vuspsi   :     39.72s CPU     43.25s WALL ( 1749172 calls)

     General routines
     calbec       :    208.47s CPU    218.94s WALL ( 3694936 calls)
     fft          :      2.45s CPU      3.24s WALL (    7139 calls)
     ffts         :    171.47s CPU    269.48s WALL (    9585 calls)
     fftw         :   4264.89s CPU   6080.67s WALL (33906945 calls)
     interpolate  :      0.97s CPU      1.40s WALL (     741 calls)
     davcio       :     37.43s CPU   1925.36s WALL (  458165 calls)
 
     Parallel routines
 
     PHONON       :      2h29m CPU      3h41m WALL

     INITIALIZATION: 
     phq_setup    :      0.03s CPU      0.05s WALL (       1 calls)
     phq_init     :     35.90s CPU     41.86s WALL (       1 calls)
 
     phq_init     :     35.90s CPU     41.86s WALL (       1 calls)
     set_drhoc    :      0.00s CPU      0.00s WALL (       3 calls)
     init_vloc    :      0.00s CPU      0.06s WALL (       2 calls)
     init_us_1    :      0.15s CPU      0.26s WALL (       2 calls)
     init_us_2    :      9.59s CPU     11.13s WALL (  107172 calls)
     newd         :      0.05s CPU      0.10s WALL (       2 calls)
     dvanqq       :      1.71s CPU      1.71s WALL (       1 calls)
     drho         :     24.96s CPU     29.34s WALL (       1 calls)
     drhous       :     11.83s CPU     14.33s WALL (       1 calls)
     nldyntot     :      0.88s CPU      0.89s WALL (       1 calls)
 
     DYNAMICAL MATRIX:
     dynmat0      :      4.46s CPU      5.07s WALL (       1 calls)
     dynmat_us    :      4.41s CPU      5.01s WALL (       1 calls)
     addusdynmat  :      0.00s CPU      0.00s WALL (       1 calls)
     d2ionq       :      0.04s CPU      0.04s WALL (       1 calls)
     dynmatcc     :      0.01s CPU      0.01s WALL (       1 calls)
     phqscf       :   8861.79s CPU  13183.95s WALL (       1 calls)
     dynmatrix    :      0.17s CPU      0.30s WALL (       1 calls)
 
     phqscf       :   8861.79s CPU  13183.95s WALL (       1 calls)
     solve_linter :   8757.77s CPU  13043.86s WALL (      33 calls)
     sth_kernel   :   7823.43s CPU  11266.94s WALL (     353 calls)
     h_prec       :   2288.40s CPU   2325.73s WALL (   82602 calls)
     apply_dpot_b :    964.26s CPU   1494.36s WALL (   82602 calls)
     ortho        :    119.16s CPU    121.92s WALL (   82602 calls)
     cgsolve      :   3367.76s CPU   4407.80s WALL (   82602 calls)
     incdrhoscf   :    617.04s CPU    923.82s WALL (   82602 calls)
                                        0.00s GPU  (   82602 calls)
     addusddens   :     36.62s CPU     45.96s WALL (     386 calls)
     vpsifft      :    185.40s CPU    292.11s WALL (    7722 calls)
     dv_of_drho   :      3.19s CPU      3.63s WALL (     353 calls)
     mix_pot      :     73.00s CPU    240.60s WALL (     353 calls)
     drhodv       :    103.96s CPU    119.65s WALL (      33 calls)
     psymdvscf    :     46.54s CPU     47.08s WALL (     353 calls)
     newdq        :     29.98s CPU     30.22s WALL (     353 calls)
     adddvscf     :      9.79s CPU     10.67s WALL (   82602 calls)
     com_dvloc    :    171.00s CPU    268.66s WALL (    8844 calls)
                                        0.00s GPU  (    8844 calls)
     addcore      :      0.50s CPU      0.61s WALL (    1475 calls)
                                        0.00s GPU  (    1475 calls)
     drhodvus     :     35.52s CPU     82.47s WALL (      33 calls)
 
     dvqpsi_us    :    204.34s CPU    303.71s WALL (    7722 calls)
                                        0.00s GPU  (    7722 calls)
     dvqpsi_us_on :     22.64s CPU     22.95s WALL (    7722 calls)
 
     add_vuspsi   :     39.72s CPU     43.25s WALL ( 1749172 calls)
     addusdbec    :      4.97s CPU      5.36s WALL (   90324 calls)
 
     drhodvus     :     35.52s CPU     82.47s WALL (      33 calls)
 
      Electron-phonon coupling
     elphel       :    217.98s CPU    396.70s WALL (      33 calls)
     elphsum      :     27.38s CPU     28.64s WALL (       1 calls)
 
      General routines
     calbec       :    208.47s CPU    218.94s WALL ( 3694936 calls)
     fft          :      2.45s CPU      3.24s WALL (    7139 calls)
     ffts         :    171.47s CPU    269.48s WALL (    9585 calls)
     fftw         :   4264.89s CPU   6080.67s WALL (33906945 calls)
     davcio       :     37.43s CPU   1925.36s WALL (  458165 calls)
     write_rec    :      0.59s CPU    258.45s WALL (     386 calls)
 
      Additional routines
     ch_psi       :   3331.59s CPU   4368.09s WALL ( 1738674 calls)
     last         :    145.31s CPU    157.87s WALL ( 1738674 calls)
     Hesh         :      5.00s CPU      5.58s WALL ( 1738674 calls)
     ch_psi_all_k :    132.20s CPU    143.64s WALL ( 1738674 calls)
                                        0.00s GPU  ( 1738674 calls)
     ch_psi_calbe :     43.77s CPU     47.31s WALL ( 1738674 calls)
                                        0.00s GPU  ( 1738674 calls)
     h_psi_bgrp   :   3142.69s CPU   4162.60s WALL ( 1749172 calls)
     h_psi        :   3139.07s CPU   4158.78s WALL ( 1749172 calls)
     h_psi:pot    :   3132.80s CPU   4151.81s WALL ( 1749172 calls)
     h_psi:calbec :     54.15s CPU     58.72s WALL ( 1749172 calls)
     s_psi_bgrp   :     88.64s CPU     96.21s WALL ( 3570448 calls)
     s_psi        :     76.76s CPU     83.42s WALL ( 3570448 calls)
 
 
     PHONON       :      2h29m CPU      3h41m WALL

 
   This run was terminated on:  20:36:36  22Oct2025            

=------------------------------------------------------------------------------=
   JOB DONE.
=------------------------------------------------------------------------------=
