
     Program PHONON v.7.4.1 starts on 22Oct2025 at 16:46:50 

     This program is part of the open-source Quantum ESPRESSO suite
     for quantum simulation of materials; please cite
         "P. Giannozzi et al., J. Phys.:Condens. Matter 21 395502 (2009);
         "P. Giannozzi et al., J. Phys.:Condens. Matter 29 465901 (2017);
         "P. Giannozzi et al., J. Chem. Phys. 152 154105 (2020);
          URL http://www.quantum-espresso.org", 
     in publications or presentations arising from this work. More details at
     http://www.quantum-espresso.org/quote

     Parallel version (MPI), running on    48 processors

     MPI processes distributed on     1 nodes
     180810 MiB available memory on the printing compute node when the environment starts
 
     Waiting for input...
     Reading input from standard input

     Reading xml data from directory:

     ./tmp/Ce1H10.save/
 
     K-points division:     npool     =       4
     R & G space division:  proc/nbgrp/npool/nimage =      12
     Subspace diagonalization in iterative solution of the eigenvalue problem:
     a serial algorithm will be used

     file Ce.paw.z_12.atompaw.wentzcovitch.v1.2.upf: wavefunction(s)  6S 0P 5D 0D 4F 0F renormalized
     file H.pbe-kjpaw_psl.1.0.0.UPF: wavefunction(s)  1S renormalized

     IMPORTANT: XC functional enforced from input :
     Exchange-correlation= PBE
                           (   1   4   3   4   0   0   0)
     Any further DFT definition will be discarded
     Please, verify this is what you really want

 
     Parallelization info
     --------------------
     sticks:   dense  smooth     PW     G-vecs:    dense   smooth      PW
     Min         226      76     22                 7730     1493     247
     Max         227      77     23                 7733     1495     249
     Sum        2713     913    271                92769    17933    2975
 
     Using Slab Decomposition
 
     Reading collected, re-writing distributed wavefunctions in ./tmp/


     Dynamical matrices for ( 6, 6, 6)  uniform grid of q-points
     (  16 q-points):
       N         xq(1)         xq(2)         xq(3) 
       1   0.000000000   0.000000000   0.000000000
       2   0.117851130   0.117851130  -0.117851130
       3   0.235702260   0.235702260  -0.235702260
       4  -0.353553391  -0.353553391   0.353553391
       5   0.235702260   0.000000000   0.000000000
       6   0.353553391   0.117851130  -0.117851130
       7  -0.235702260  -0.471404521   0.471404521
       8  -0.117851130  -0.353553391   0.353553391
       9   0.000000000  -0.235702260   0.235702260
      10   0.471404521   0.000000000   0.000000000
      11  -0.117851130  -0.589255651   0.589255651
      12  -0.000000000  -0.471404521   0.471404521
      13  -0.707106781   0.000000000   0.000000000
      14  -0.235702260  -0.471404521   0.707106781
      15  -0.117851130  -0.353553391   0.589255651
      16  -0.707106781   0.235702260   0.000000000

     Number and degeneracy of irreps per q-point
       N         xq(1)         xq(2)         xq(3)   N irreps
       1   0.000000000   0.000000000   0.000000000      13
        1   2   3   3   3   3   1   2   3   3   3   3   3
       2   0.117851130   0.117851130  -0.117851130      22
        1   1   1   1   1   1   1   1   1   1   1   2   2   2   2   2   2   2
   2   2   2   2
       3   0.235702260   0.235702260  -0.235702260      22
        1   1   1   1   1   1   1   1   1   1   1   2   2   2   2   2   2   2
   2   2   2   2
       4  -0.353553391  -0.353553391   0.353553391      22
        1   1   1   1   1   1   2   2   2   2   2   2   1   1   1   1   1   2
   2   2   2   2
       5   0.235702260   0.000000000   0.000000000      24
        1   1   1   1   1   1   1   1   1   1   1   1   1   1   1   2   2   2
   2   2   2   2   2   2
       6   0.353553391   0.117851130  -0.117851130      33
     No degeneracy
       7  -0.235702260  -0.471404521   0.471404521      33
     No degeneracy
       8  -0.117851130  -0.353553391   0.353553391      33
     No degeneracy
       9   0.000000000  -0.235702260   0.235702260      33
     No degeneracy
      10   0.471404521   0.000000000   0.000000000      24
        1   1   1   1   1   1   1   1   1   1   1   1   1   1   1   2   2   2
   2   2   2   2   2   2
      11  -0.117851130  -0.589255651   0.589255651      33
     No degeneracy
      12  -0.000000000  -0.471404521   0.471404521      33
     No degeneracy
      13  -0.707106781   0.000000000   0.000000000      24
        1   1   1   1   1   1   1   2   2   2   2   1   1   1   1   1   1   1
   1   2   2   2   2   2
      14  -0.235702260  -0.471404521   0.707106781      33
     No degeneracy
      15  -0.117851130  -0.353553391   0.589255651      33
     No degeneracy
      16  -0.707106781   0.235702260   0.000000000      33
     No degeneracy

     Saving dvscf to file. Distribute only q points, not irreducible representations.

     Calculation of q =    0.2357023   0.0000000   0.0000000
 
     Parallelization info
     --------------------
     sticks:   dense  smooth     PW     G-vecs:    dense   smooth      PW
     Min         226      76     23                 7730     1493     260
     Max         227      77     24                 7733     1495     263
     Sum        2713     913    283                92769    17933    3143
 
     Using Slab Decomposition
 

     Title: 
     Electron-phonon coefficients for Ce1H10                                    


     bravais-lattice index     =            0
     lattice parameter (alat)  =       6.3833  a.u.
     unit-cell volume          =     183.9165 (a.u.)^3
     number of atoms/cell      =           11
     number of atomic types    =            2
     number of electrons       =        22.00
     number of Kohn-Sham states=           15
     kinetic-energy cutoff     =      80.0000  Ry
     charge density cutoff     =     960.0000  Ry
     Exchange-correlation= PBE
                           (   1   4   3   4   0   0   0)

     celldm(1)=   6.383300  celldm(2)=   0.000000  celldm(3)=   0.000000
     celldm(4)=   0.000000  celldm(5)=   0.000000  celldm(6)=   0.000000

     crystal axes: (cart. coord. in units of alat)
               a(1) = (   0.000000   0.707107   0.707107 )  
               a(2) = (   0.707107   0.000000   0.707107 )  
               a(3) = (   0.707107   0.707107   0.000000 )  

     reciprocal axes: (cart. coord. in units 2 pi/alat)
               b(1) = ( -0.707107  0.707107  0.707107 )  
               b(2) = (  0.707107 -0.707107  0.707107 )  
               b(3) = (  0.707107  0.707107 -0.707107 )  


     PseudoPot. # 1 for Ce read from file:
     /work/home/mayuan/workplace/1.typical_hydride/003.MH10/2.CeH10/250/Tc-666-paw/pp/Ce.paw.z_12.atompaw.wentzcovitch.v1.2.upf
     MD5 check sum: 2241420ff980c77e0c917a2dc8a7e08e
     Pseudo is Projector augmented-wave + core cor, Zval = 12.0
     Generated using ATOMPAW code
     Shape of augmentation charge: BESSEL
     Using radial grid of 1102 points,  8 beta functions with: 
                l(1) =   0
                l(2) =   0
                l(3) =   1
                l(4) =   1
                l(5) =   2
                l(6) =   2
                l(7) =   3
                l(8) =   3
     Q(r) pseudized with 0 coefficients 


     PseudoPot. # 2 for H  read from file:
     /work/home/mayuan/workplace/1.typical_hydride/003.MH10/2.CeH10/250/Tc-666-paw/pp/H.pbe-kjpaw_psl.1.0.0.UPF
     MD5 check sum: 3bb27c602ede137025941d095c9090b7
     Pseudo is Projector augmented-wave, Zval =  1.0
     Generated using 'atomic' code by A. Dal Corso  v.7.1
     Shape of augmentation charge: PSQ
     Using radial grid of  929 points,  2 beta functions with: 
                l(1) =   0
                l(2) =   0
     Q(r) pseudized with 0 coefficients 


     atomic species   valence    mass     pseudopotential
     Ce               12.00   140.11600     Ce( 1.00)
     H                 1.00     1.00794     H ( 1.00)

     48 Sym. Ops., with inversion, found



   Cartesian axes

     site n.     atom                  positions (alat units)
         1        Ce     tau(   1) = (   0.7071068   0.7071068   0.7071068  )
         2        H      tau(   2) = (   0.3535534   0.3535534   0.3535534  )
         3        H      tau(   3) = (   1.0606602   1.0606602   1.0606602  )
         4        H      tau(   4) = (   1.2411448   1.2411448   1.2411448  )
         5        H      tau(   5) = (   0.1730688   0.1730688   0.1730688  )
         6        H      tau(   6) = (   0.8801756   0.8801756   1.2411448  )
         7        H      tau(   7) = (   0.5340380   0.5340380   0.1730688  )
         8        H      tau(   8) = (   0.8801756   1.2411448   0.8801756  )
         9        H      tau(   9) = (   0.5340380   0.1730688   0.5340380  )
        10        H      tau(  10) = (   1.2411448   0.8801756   0.8801756  )
        11        H      tau(  11) = (   0.1730688   0.5340380   0.5340380  )

     number of k points=   588  Gaussian smearing, width (Ry)=  0.0200

     Number of k-points >= 100: set verbosity='high' to print them.

     Dense  grid:    92769 G-vectors     FFT dimensions: (  64,  64,  64)

     Smooth grid:    17933 G-vectors     FFT dimensions: (  40,  40,  40)

     Estimated max dynamical RAM per process >      31.86 MB

     Estimated total dynamical RAM >       1.49 GB

     The potential is recalculated from file :
     ./tmp/_ph0/Ce1H10.q_5/Ce1H10.save/charge-density

     Starting wfcs are   42 atomic wfcs
     Checking if some PAW data can be deallocated... 

     Band Structure Calculation
     Davidson diagonalization with overlap

     ethr =  4.55E-11,  avg # of iterations = 18.8

     total cpu time spent up to now is       12.6 secs

     End of band structure calculation

     Number of k-points >= 100: set verbosity='high' to print the bands.

     the Fermi energy is    22.0987 ev

     Writing config to output data dir ./tmp/_ph0/Ce1H10.q_5/Ce1H10.save/ :
     XML data file

Possibly too few bands at point    1   0.00000   0.00000   0.00000

     Electron-phonon coefficients for Ce1H10                                    

     bravais-lattice index     =            0
     lattice parameter (alat)  =       6.3833  a.u.
     unit-cell volume          =     183.9165 (a.u.)^3
     number of atoms/cell      =           11
     number of atomic types    =            2
     kinetic-energy cut-off    =      80.0000  Ry
     charge density cut-off    =     960.0000  Ry
     convergence threshold     =      1.0E-14
     beta                      =       0.3000
     number of iterations used =            4
     Exchange-correlation= PBE
                           (   1   4   3   4   0   0   0)


     celldm(1)=    6.38330  celldm(2)=    0.00000  celldm(3)=    0.00000
     celldm(4)=    0.00000  celldm(5)=    0.00000  celldm(6)=    0.00000

     crystal axes: (cart. coord. in units of alat)
               a(1) = (  0.0000  0.7071  0.7071 )  
               a(2) = (  0.7071  0.0000  0.7071 )  
               a(3) = (  0.7071  0.7071  0.0000 )  

     reciprocal axes: (cart. coord. in units 2 pi/alat)
               b(1) = ( -0.7071  0.7071  0.7071 )  
               b(2) = (  0.7071 -0.7071  0.7071 )  
               b(3) = (  0.7071  0.7071 -0.7071 )  


     Atoms inside the unit cell: 

     Cartesian axes

     site n.  atom      mass           positions (alat units)
        1  Ce    140.1160   tau(    1) = (    0.70711    0.70711    0.70711  )
        2  H       1.0079   tau(    2) = (    0.35355    0.35355    0.35355  )
        3  H       1.0079   tau(    3) = (    1.06066    1.06066    1.06066  )
        4  H       1.0079   tau(    4) = (    1.24114    1.24114    1.24114  )
        5  H       1.0079   tau(    5) = (    0.17307    0.17307    0.17307  )
        6  H       1.0079   tau(    6) = (    0.88018    0.88018    1.24114  )
        7  H       1.0079   tau(    7) = (    0.53404    0.53404    0.17307  )
        8  H       1.0079   tau(    8) = (    0.88018    1.24114    0.88018  )
        9  H       1.0079   tau(    9) = (    0.53404    0.17307    0.53404  )
       10  H       1.0079   tau(   10) = (    1.24114    0.88018    0.88018  )
       11  H       1.0079   tau(   11) = (    0.17307    0.53404    0.53404  )

     Computing dynamical matrix for 
                    q = (   0.2357023   0.0000000   0.0000000 )
 
      8 Sym.Ops. (no q -> -q+G )


     G cutoff =  990.8365  (   7731 G-vectors)     FFT grid: ( 64, 64, 64)
     G cutoff =  330.2788  (   1495 G-vectors)  smooth grid: ( 40, 40, 40)

     number of k points=   588  Gaussian smearing, width (Ry)=  0.0200

     PseudoPot. # 1 for Ce read from file:
     /work/home/mayuan/workplace/1.typical_hydride/003.MH10/2.CeH10/250/Tc-666-paw/pp/Ce.paw.z_12.atompaw.wentzcovitch.v1.2.upf
     MD5 check sum: 2241420ff980c77e0c917a2dc8a7e08e
     Pseudo is Projector augmented-wave + core cor, Zval = 12.0
     Generated using ATOMPAW code
     Shape of augmentation charge: BESSEL
     Using radial grid of 1102 points,  8 beta functions with: 
                l(1) =   0
                l(2) =   0
                l(3) =   1
                l(4) =   1
                l(5) =   2
                l(6) =   2
                l(7) =   3
                l(8) =   3
     Q(r) pseudized with 0 coefficients 


     PseudoPot. # 2 for H  read from file:
     /work/home/mayuan/workplace/1.typical_hydride/003.MH10/2.CeH10/250/Tc-666-paw/pp/H.pbe-kjpaw_psl.1.0.0.UPF
     MD5 check sum: 3bb27c602ede137025941d095c9090b7
     Pseudo is Projector augmented-wave, Zval =  1.0
     Generated using 'atomic' code by A. Dal Corso  v.7.1
     Shape of augmentation charge: PSQ
     Using radial grid of  929 points,  2 beta functions with: 
                l(1) =   0
                l(2) =   0
     Q(r) pseudized with 0 coefficients 


     Mode symmetry, C_4v (4mm)  point group:


     Atomic displacements:
     There are   24 irreducible representations

     Representation     1      1 modes -  To be done

     Representation     2      1 modes -  To be done

     Representation     3      1 modes -  To be done

     Representation     4      1 modes -  To be done

     Representation     5      1 modes -  To be done

     Representation     6      1 modes -  To be done

     Representation     7      1 modes -  To be done

     Representation     8      1 modes -  To be done

     Representation     9      1 modes -  To be done

     Representation    10      1 modes -  To be done

     Representation    11      1 modes -  To be done

     Representation    12      1 modes -  To be done

     Representation    13      1 modes -  To be done

     Representation    14      1 modes -  To be done

     Representation    15      1 modes -  To be done

     Representation    16      2 modes -  To be done

     Representation    17      2 modes -  To be done

     Representation    18      2 modes -  To be done

     Representation    19      2 modes -  To be done

     Representation    20      2 modes -  To be done

     Representation    21      2 modes -  To be done

     Representation    22      2 modes -  To be done

     Representation    23      2 modes -  To be done

     Representation    24      2 modes -  To be done


     Message from routine init_vloc:
     Interpolation table for Vloc re-allocated

     Alpha used in Ewald sum =   2.8000
     PHONON       :     24.97s CPU     36.74s WALL



     Representation #   1 mode #   1

     Self-consistent Calculation

      iter #   1 total cpu time :    45.1 secs   av.it.:   7.6
      thresh= 1.000E-02 alpha_mix =  0.300 |ddv_scf|^2 =  4.556E-04

      iter #   2 total cpu time :    59.6 secs   av.it.:  13.5
      thresh= 2.134E-03 alpha_mix =  0.300 |ddv_scf|^2 =  3.557E-02

      iter #   3 total cpu time :    71.1 secs   av.it.:  11.2
      thresh= 1.000E-02 alpha_mix =  0.300 |ddv_scf|^2 =  1.249E-06

      iter #   4 total cpu time :    83.3 secs   av.it.:  12.6
      thresh= 1.118E-04 alpha_mix =  0.300 |ddv_scf|^2 =  1.381E-07

      iter #   5 total cpu time :    95.1 secs   av.it.:  12.6
      thresh= 3.716E-05 alpha_mix =  0.300 |ddv_scf|^2 =  5.367E-08

      iter #   6 total cpu time :   107.4 secs   av.it.:  12.4
      thresh= 2.317E-05 alpha_mix =  0.300 |ddv_scf|^2 =  1.081E-10

      iter #   7 total cpu time :   120.0 secs   av.it.:  14.6
      thresh= 1.040E-06 alpha_mix =  0.300 |ddv_scf|^2 =  1.520E-09

      iter #   8 total cpu time :   133.2 secs   av.it.:  12.4
      thresh= 3.899E-06 alpha_mix =  0.300 |ddv_scf|^2 =  7.953E-11

      iter #   9 total cpu time :   147.3 secs   av.it.:  14.3
      thresh= 8.918E-07 alpha_mix =  0.300 |ddv_scf|^2 =  2.206E-11

      iter #  10 total cpu time :   160.5 secs   av.it.:  11.9
      thresh= 4.697E-07 alpha_mix =  0.300 |ddv_scf|^2 =  1.828E-12

      iter #  11 total cpu time :   174.9 secs   av.it.:  14.2
      thresh= 1.352E-07 alpha_mix =  0.300 |ddv_scf|^2 =  1.786E-13

      iter #  12 total cpu time :   188.3 secs   av.it.:  14.1
      thresh= 4.227E-08 alpha_mix =  0.300 |ddv_scf|^2 =  6.127E-14

      iter #  13 total cpu time :   200.1 secs   av.it.:  13.1
      thresh= 2.475E-08 alpha_mix =  0.300 |ddv_scf|^2 =  7.007E-14

      iter #  14 total cpu time :   212.6 secs   av.it.:  12.7
      thresh= 2.647E-08 alpha_mix =  0.300 |ddv_scf|^2 =  4.588E-15

     End of self-consistent calculation

     Convergence has been achieved 


     Representation #   2 mode #   2

     Self-consistent Calculation

      iter #   1 total cpu time :   228.7 secs   av.it.:   8.2
      thresh= 1.000E-02 alpha_mix =  0.300 |ddv_scf|^2 =  7.781E-04

      iter #   2 total cpu time :   238.6 secs   av.it.:  13.5
      thresh= 2.790E-03 alpha_mix =  0.300 |ddv_scf|^2 =  6.058E-02

      iter #   3 total cpu time :   247.8 secs   av.it.:  11.7
      thresh= 1.000E-02 alpha_mix =  0.300 |ddv_scf|^2 =  3.024E-06

      iter #   4 total cpu time :   257.6 secs   av.it.:  12.9
      thresh= 1.739E-04 alpha_mix =  0.300 |ddv_scf|^2 =  5.185E-07

      iter #   5 total cpu time :   268.1 secs   av.it.:  12.3
      thresh= 7.200E-05 alpha_mix =  0.300 |ddv_scf|^2 =  4.434E-08

      iter #   6 total cpu time :   278.9 secs   av.it.:  13.4
      thresh= 2.106E-05 alpha_mix =  0.300 |ddv_scf|^2 =  1.099E-08

      iter #   7 total cpu time :   289.3 secs   av.it.:  11.4
      thresh= 1.048E-05 alpha_mix =  0.300 |ddv_scf|^2 =  5.797E-10

      iter #   8 total cpu time :   299.4 secs   av.it.:  14.4
      thresh= 2.408E-06 alpha_mix =  0.300 |ddv_scf|^2 =  1.119E-10

      iter #   9 total cpu time :   310.1 secs   av.it.:  14.6
      thresh= 1.058E-06 alpha_mix =  0.300 |ddv_scf|^2 =  1.064E-12

      iter #  10 total cpu time :   321.3 secs   av.it.:  15.4
      thresh= 1.032E-07 alpha_mix =  0.300 |ddv_scf|^2 =  8.301E-13

      iter #  11 total cpu time :   332.0 secs   av.it.:  15.1
      thresh= 9.111E-08 alpha_mix =  0.300 |ddv_scf|^2 =  4.598E-14

      iter #  12 total cpu time :   342.7 secs   av.it.:  15.7
      thresh= 2.144E-08 alpha_mix =  0.300 |ddv_scf|^2 =  7.304E-13

      iter #  13 total cpu time :   352.5 secs   av.it.:  12.5
      thresh= 8.546E-08 alpha_mix =  0.300 |ddv_scf|^2 =  4.082E-15

     End of self-consistent calculation

     Convergence has been achieved 


     Representation #   3 mode #   3

     Self-consistent Calculation

      iter #   1 total cpu time :   367.8 secs   av.it.:   7.8
      thresh= 1.000E-02 alpha_mix =  0.300 |ddv_scf|^2 =  1.893E-04

      iter #   2 total cpu time :   377.4 secs   av.it.:  13.5
      thresh= 1.376E-03 alpha_mix =  0.300 |ddv_scf|^2 =  1.442E-02

      iter #   3 total cpu time :   386.7 secs   av.it.:  10.4
      thresh= 1.000E-02 alpha_mix =  0.300 |ddv_scf|^2 =  3.653E-06

      iter #   4 total cpu time :   397.5 secs   av.it.:  12.8
      thresh= 1.911E-04 alpha_mix =  0.300 |ddv_scf|^2 =  1.073E-06

      iter #   5 total cpu time :   411.1 secs   av.it.:  12.0
      thresh= 1.036E-04 alpha_mix =  0.300 |ddv_scf|^2 =  8.851E-09

      iter #   6 total cpu time :   422.7 secs   av.it.:  15.0
      thresh= 9.408E-06 alpha_mix =  0.300 |ddv_scf|^2 =  1.034E-08

      iter #   7 total cpu time :   433.0 secs   av.it.:  11.1
      thresh= 1.017E-05 alpha_mix =  0.300 |ddv_scf|^2 =  4.508E-10

      iter #   8 total cpu time :   443.5 secs   av.it.:  14.5
      thresh= 2.123E-06 alpha_mix =  0.300 |ddv_scf|^2 =  1.764E-10

      iter #   9 total cpu time :   453.3 secs   av.it.:  14.4
      thresh= 1.328E-06 alpha_mix =  0.300 |ddv_scf|^2 =  7.098E-12

      iter #  10 total cpu time :   464.3 secs   av.it.:  14.0
      thresh= 2.664E-07 alpha_mix =  0.300 |ddv_scf|^2 =  7.155E-13

      iter #  11 total cpu time :   475.7 secs   av.it.:  15.2
      thresh= 8.459E-08 alpha_mix =  0.300 |ddv_scf|^2 =  5.715E-14

      iter #  12 total cpu time :   485.6 secs   av.it.:  15.5
      thresh= 2.391E-08 alpha_mix =  0.300 |ddv_scf|^2 =  9.901E-14

      iter #  13 total cpu time :   496.8 secs   av.it.:  14.1
      thresh= 3.147E-08 alpha_mix =  0.300 |ddv_scf|^2 =  6.230E-14

      iter #  14 total cpu time :   505.7 secs   av.it.:  13.5
      thresh= 2.496E-08 alpha_mix =  0.300 |ddv_scf|^2 =  4.198E-14

      iter #  15 total cpu time :   516.1 secs   av.it.:  12.9
      thresh= 2.049E-08 alpha_mix =  0.300 |ddv_scf|^2 =  6.185E-15

     End of self-consistent calculation

     Convergence has been achieved 


     Representation #   4 mode #   4

     Self-consistent Calculation

      iter #   1 total cpu time :   531.7 secs   av.it.:  11.5
      thresh= 1.000E-02 alpha_mix =  0.300 |ddv_scf|^2 =  3.044E-02

      iter #   2 total cpu time :   541.4 secs   av.it.:  14.4
      thresh= 1.000E-02 alpha_mix =  0.300 |ddv_scf|^2 =  2.334E+00

      iter #   3 total cpu time :   550.8 secs   av.it.:  14.4
      thresh= 1.000E-02 alpha_mix =  0.300 |ddv_scf|^2 =  4.229E-04

      iter #   4 total cpu time :   560.2 secs   av.it.:  12.1
      thresh= 2.056E-03 alpha_mix =  0.300 |ddv_scf|^2 =  1.162E-04

      iter #   5 total cpu time :   570.0 secs   av.it.:  11.4
      thresh= 1.078E-03 alpha_mix =  0.300 |ddv_scf|^2 =  1.324E-08

      iter #   6 total cpu time :   579.5 secs   av.it.:  15.8
      thresh= 1.151E-05 alpha_mix =  0.300 |ddv_scf|^2 =  9.346E-09

      iter #   7 total cpu time :   590.7 secs   av.it.:  14.2
      thresh= 9.667E-06 alpha_mix =  0.300 |ddv_scf|^2 =  1.903E-08

      iter #   8 total cpu time :   599.7 secs   av.it.:  11.0
      thresh= 1.380E-05 alpha_mix =  0.300 |ddv_scf|^2 =  2.366E-09

      iter #   9 total cpu time :   611.0 secs   av.it.:  14.1
      thresh= 4.864E-06 alpha_mix =  0.300 |ddv_scf|^2 =  1.000E-10

      iter #  10 total cpu time :   621.1 secs   av.it.:  14.4
      thresh= 1.000E-06 alpha_mix =  0.300 |ddv_scf|^2 =  6.563E-12

      iter #  11 total cpu time :   631.4 secs   av.it.:  13.7
      thresh= 2.562E-07 alpha_mix =  0.300 |ddv_scf|^2 =  1.962E-13

      iter #  12 total cpu time :   642.4 secs   av.it.:  15.9
      thresh= 4.429E-08 alpha_mix =  0.300 |ddv_scf|^2 =  5.531E-13

      iter #  13 total cpu time :   654.2 secs   av.it.:  13.3
      thresh= 7.437E-08 alpha_mix =  0.300 |ddv_scf|^2 =  4.084E-14

      iter #  14 total cpu time :   664.6 secs   av.it.:  14.0
      thresh= 2.021E-08 alpha_mix =  0.300 |ddv_scf|^2 =  4.102E-14

      iter #  15 total cpu time :   674.4 secs   av.it.:  13.7
      thresh= 2.025E-08 alpha_mix =  0.300 |ddv_scf|^2 =  7.658E-15

     End of self-consistent calculation

     Convergence has been achieved 


     Representation #   5 mode #   5

     Self-consistent Calculation

      iter #   1 total cpu time :   691.1 secs   av.it.:   7.8
      thresh= 1.000E-02 alpha_mix =  0.300 |ddv_scf|^2 =  1.876E-04

      iter #   2 total cpu time :   701.2 secs   av.it.:  13.6
      thresh= 1.370E-03 alpha_mix =  0.300 |ddv_scf|^2 =  1.477E-02

      iter #   3 total cpu time :   710.8 secs   av.it.:  10.4
      thresh= 1.000E-02 alpha_mix =  0.300 |ddv_scf|^2 =  8.914E-08

      iter #   4 total cpu time :   721.7 secs   av.it.:  15.0
      thresh= 2.986E-05 alpha_mix =  0.300 |ddv_scf|^2 =  1.083E-08

      iter #   5 total cpu time :   733.7 secs   av.it.:  14.8
      thresh= 1.041E-05 alpha_mix =  0.300 |ddv_scf|^2 =  2.399E-09

      iter #   6 total cpu time :   745.8 secs   av.it.:  16.0
      thresh= 4.898E-06 alpha_mix =  0.300 |ddv_scf|^2 =  3.051E-08

      iter #   7 total cpu time :   756.8 secs   av.it.:  10.6
      thresh= 1.747E-05 alpha_mix =  0.300 |ddv_scf|^2 =  8.020E-11

      iter #   8 total cpu time :   769.7 secs   av.it.:  15.3
      thresh= 8.955E-07 alpha_mix =  0.300 |ddv_scf|^2 =  2.255E-10

      iter #   9 total cpu time :   781.6 secs   av.it.:  12.7
      thresh= 1.502E-06 alpha_mix =  0.300 |ddv_scf|^2 =  3.588E-10

      iter #  10 total cpu time :   792.1 secs   av.it.:  14.0
      thresh= 1.894E-06 alpha_mix =  0.300 |ddv_scf|^2 =  5.729E-12

      iter #  11 total cpu time :   801.9 secs   av.it.:  14.7
      thresh= 2.393E-07 alpha_mix =  0.300 |ddv_scf|^2 =  4.874E-12

      iter #  12 total cpu time :   813.1 secs   av.it.:  13.3
      thresh= 2.208E-07 alpha_mix =  0.300 |ddv_scf|^2 =  5.158E-13

      iter #  13 total cpu time :   824.6 secs   av.it.:  13.4
      thresh= 7.182E-08 alpha_mix =  0.300 |ddv_scf|^2 =  4.504E-14

      iter #  14 total cpu time :   836.7 secs   av.it.:  14.6
      thresh= 2.122E-08 alpha_mix =  0.300 |ddv_scf|^2 =  2.680E-14

      iter #  15 total cpu time :   848.6 secs   av.it.:  14.1
      thresh= 1.637E-08 alpha_mix =  0.300 |ddv_scf|^2 =  1.169E-15

     End of self-consistent calculation

     Convergence has been achieved 


     Representation #   6 mode #   6

     Self-consistent Calculation

      iter #   1 total cpu time :   866.5 secs   av.it.:   8.3
      thresh= 1.000E-02 alpha_mix =  0.300 |ddv_scf|^2 =  7.764E-04

      iter #   2 total cpu time :   877.2 secs   av.it.:  13.5
      thresh= 2.786E-03 alpha_mix =  0.300 |ddv_scf|^2 =  6.093E-02

      iter #   3 total cpu time :   887.0 secs   av.it.:  11.6
      thresh= 1.000E-02 alpha_mix =  0.300 |ddv_scf|^2 =  8.701E-07

      iter #   4 total cpu time :   896.6 secs   av.it.:  13.4
      thresh= 9.328E-05 alpha_mix =  0.300 |ddv_scf|^2 =  3.482E-08

      iter #   5 total cpu time :   906.6 secs   av.it.:  14.4
      thresh= 1.866E-05 alpha_mix =  0.300 |ddv_scf|^2 =  5.470E-08

      iter #   6 total cpu time :   917.0 secs   av.it.:  13.1
      thresh= 2.339E-05 alpha_mix =  0.300 |ddv_scf|^2 =  1.078E-09

      iter #   7 total cpu time :   926.4 secs   av.it.:  12.2
      thresh= 3.283E-06 alpha_mix =  0.300 |ddv_scf|^2 =  5.071E-10

      iter #   8 total cpu time :   937.6 secs   av.it.:  14.6
      thresh= 2.252E-06 alpha_mix =  0.300 |ddv_scf|^2 =  4.014E-10

      iter #   9 total cpu time :   949.3 secs   av.it.:  13.7
      thresh= 2.004E-06 alpha_mix =  0.300 |ddv_scf|^2 =  1.097E-11

      iter #  10 total cpu time :   960.3 secs   av.it.:  13.6
      thresh= 3.312E-07 alpha_mix =  0.300 |ddv_scf|^2 =  3.519E-13

      iter #  11 total cpu time :   970.9 secs   av.it.:  15.8
      thresh= 5.932E-08 alpha_mix =  0.300 |ddv_scf|^2 =  4.736E-13

      iter #  12 total cpu time :   982.5 secs   av.it.:  13.9
      thresh= 6.882E-08 alpha_mix =  0.300 |ddv_scf|^2 =  1.190E-14

      iter #  13 total cpu time :   994.0 secs   av.it.:  15.3
      thresh= 1.091E-08 alpha_mix =  0.300 |ddv_scf|^2 =  1.331E-13

      iter #  14 total cpu time :  1004.2 secs   av.it.:  13.1
      thresh= 3.648E-08 alpha_mix =  0.300 |ddv_scf|^2 =  4.077E-16

     End of self-consistent calculation

     Convergence has been achieved 


     Representation #   7 mode #   7

     Self-consistent Calculation

      iter #   1 total cpu time :  1020.0 secs   av.it.:   5.6
      thresh= 1.000E-02 alpha_mix =  0.300 |ddv_scf|^2 =  5.435E-10

      iter #   2 total cpu time :  1031.8 secs   av.it.:  14.9
      thresh= 2.331E-06 alpha_mix =  0.300 |ddv_scf|^2 =  2.696E-10

      iter #   3 total cpu time :  1041.8 secs   av.it.:  14.8
      thresh= 1.642E-06 alpha_mix =  0.300 |ddv_scf|^2 =  4.320E-13

      iter #   4 total cpu time :  1054.2 secs   av.it.:  15.2
      thresh= 6.573E-08 alpha_mix =  0.300 |ddv_scf|^2 =  6.866E-14

      iter #   5 total cpu time :  1066.0 secs   av.it.:  15.1
      thresh= 2.620E-08 alpha_mix =  0.300 |ddv_scf|^2 =  3.963E-16

     End of self-consistent calculation

     Convergence has been achieved 


     Representation #   8 mode #   8

     Self-consistent Calculation

      iter #   1 total cpu time :  1082.6 secs   av.it.:   5.6
      thresh= 1.000E-02 alpha_mix =  0.300 |ddv_scf|^2 =  5.435E-10

      iter #   2 total cpu time :  1093.2 secs   av.it.:  14.9
      thresh= 2.331E-06 alpha_mix =  0.300 |ddv_scf|^2 =  2.696E-10

      iter #   3 total cpu time :  1105.1 secs   av.it.:  14.8
      thresh= 1.642E-06 alpha_mix =  0.300 |ddv_scf|^2 =  4.320E-13

      iter #   4 total cpu time :  1115.3 secs   av.it.:  15.2
      thresh= 6.573E-08 alpha_mix =  0.300 |ddv_scf|^2 =  6.879E-14

      iter #   5 total cpu time :  1125.1 secs   av.it.:  15.1
      thresh= 2.623E-08 alpha_mix =  0.300 |ddv_scf|^2 =  3.963E-16

     End of self-consistent calculation

     Convergence has been achieved 


     Representation #   9 mode #   9

     Self-consistent Calculation

      iter #   1 total cpu time :  1142.2 secs   av.it.:   7.0
      thresh= 1.000E-02 alpha_mix =  0.300 |ddv_scf|^2 =  2.203E-08

      iter #   2 total cpu time :  1153.1 secs   av.it.:  14.6
      thresh= 1.484E-05 alpha_mix =  0.300 |ddv_scf|^2 =  6.687E-09

      iter #   3 total cpu time :  1163.6 secs   av.it.:  15.6
      thresh= 8.177E-06 alpha_mix =  0.300 |ddv_scf|^2 =  9.690E-11

      iter #   4 total cpu time :  1174.9 secs   av.it.:  16.3
      thresh= 9.844E-07 alpha_mix =  0.300 |ddv_scf|^2 =  1.474E-12

      iter #   5 total cpu time :  1185.5 secs   av.it.:  14.5
      thresh= 1.214E-07 alpha_mix =  0.300 |ddv_scf|^2 =  5.362E-13

      iter #   6 total cpu time :  1196.3 secs   av.it.:  15.9
      thresh= 7.322E-08 alpha_mix =  0.300 |ddv_scf|^2 =  4.166E-15

     End of self-consistent calculation

     Convergence has been achieved 


     Representation #  10 mode #  10

     Self-consistent Calculation

      iter #   1 total cpu time :  1219.9 secs   av.it.:   7.0
      thresh= 1.000E-02 alpha_mix =  0.300 |ddv_scf|^2 =  2.203E-08

      iter #   2 total cpu time :  1232.6 secs   av.it.:  14.6
      thresh= 1.484E-05 alpha_mix =  0.300 |ddv_scf|^2 =  6.687E-09

      iter #   3 total cpu time :  1245.0 secs   av.it.:  15.6
      thresh= 8.177E-06 alpha_mix =  0.300 |ddv_scf|^2 =  9.690E-11

      iter #   4 total cpu time :  1255.6 secs   av.it.:  16.3
      thresh= 9.844E-07 alpha_mix =  0.300 |ddv_scf|^2 =  1.474E-12

      iter #   5 total cpu time :  1267.9 secs   av.it.:  14.5
      thresh= 1.214E-07 alpha_mix =  0.300 |ddv_scf|^2 =  5.362E-13

      iter #   6 total cpu time :  1279.3 secs   av.it.:  15.9
      thresh= 7.322E-08 alpha_mix =  0.300 |ddv_scf|^2 =  4.166E-15

     End of self-consistent calculation

     Convergence has been achieved 


     Representation #  11 mode #  11

     Self-consistent Calculation

      iter #   1 total cpu time :  1295.2 secs   av.it.:   6.7
      thresh= 1.000E-02 alpha_mix =  0.300 |ddv_scf|^2 =  3.875E-08

      iter #   2 total cpu time :  1305.2 secs   av.it.:  14.5
      thresh= 1.968E-05 alpha_mix =  0.300 |ddv_scf|^2 =  5.144E-09

      iter #   3 total cpu time :  1316.1 secs   av.it.:  15.4
      thresh= 7.172E-06 alpha_mix =  0.300 |ddv_scf|^2 =  1.331E-10

      iter #   4 total cpu time :  1327.5 secs   av.it.:  15.9
      thresh= 1.154E-06 alpha_mix =  0.300 |ddv_scf|^2 =  6.656E-12

      iter #   5 total cpu time :  1337.8 secs   av.it.:  15.6
      thresh= 2.580E-07 alpha_mix =  0.300 |ddv_scf|^2 =  5.368E-13

      iter #   6 total cpu time :  1349.6 secs   av.it.:  15.8
      thresh= 7.327E-08 alpha_mix =  0.300 |ddv_scf|^2 =  4.047E-14

      iter #   7 total cpu time :  1361.9 secs   av.it.:  16.4
      thresh= 2.012E-08 alpha_mix =  0.300 |ddv_scf|^2 =  4.271E-16

     End of self-consistent calculation

     Convergence has been achieved 


     Representation #  12 mode #  12

     Self-consistent Calculation

      iter #   1 total cpu time :  1379.5 secs   av.it.:   6.6
      thresh= 1.000E-02 alpha_mix =  0.300 |ddv_scf|^2 =  3.625E-08

      iter #   2 total cpu time :  1389.5 secs   av.it.:  14.5
      thresh= 1.904E-05 alpha_mix =  0.300 |ddv_scf|^2 =  6.499E-09

      iter #   3 total cpu time :  1399.6 secs   av.it.:  15.2
      thresh= 8.062E-06 alpha_mix =  0.300 |ddv_scf|^2 =  2.184E-10

      iter #   4 total cpu time :  1410.8 secs   av.it.:  15.5
      thresh= 1.478E-06 alpha_mix =  0.300 |ddv_scf|^2 =  1.570E-11

      iter #   5 total cpu time :  1421.7 secs   av.it.:  15.7
      thresh= 3.962E-07 alpha_mix =  0.300 |ddv_scf|^2 =  5.874E-13

      iter #   6 total cpu time :  1433.3 secs   av.it.:  15.4
      thresh= 7.664E-08 alpha_mix =  0.300 |ddv_scf|^2 =  6.672E-14

      iter #   7 total cpu time :  1447.1 secs   av.it.:  16.1
      thresh= 2.583E-08 alpha_mix =  0.300 |ddv_scf|^2 =  1.435E-15

     End of self-consistent calculation

     Convergence has been achieved 


     Representation #  13 mode #  13

     Self-consistent Calculation

      iter #   1 total cpu time :  1463.5 secs   av.it.:   6.9
      thresh= 1.000E-02 alpha_mix =  0.300 |ddv_scf|^2 =  6.307E-08

      iter #   2 total cpu time :  1476.3 secs   av.it.:  14.3
      thresh= 2.511E-05 alpha_mix =  0.300 |ddv_scf|^2 =  8.598E-09

      iter #   3 total cpu time :  1488.0 secs   av.it.:  15.4
      thresh= 9.273E-06 alpha_mix =  0.300 |ddv_scf|^2 =  1.662E-10

      iter #   4 total cpu time :  1500.6 secs   av.it.:  15.8
      thresh= 1.289E-06 alpha_mix =  0.300 |ddv_scf|^2 =  1.319E-11

      iter #   5 total cpu time :  1511.8 secs   av.it.:  15.3
      thresh= 3.632E-07 alpha_mix =  0.300 |ddv_scf|^2 =  8.605E-13

      iter #   6 total cpu time :  1524.0 secs   av.it.:  15.7
      thresh= 9.276E-08 alpha_mix =  0.300 |ddv_scf|^2 =  3.664E-14

      iter #   7 total cpu time :  1535.1 secs   av.it.:  16.4
      thresh= 1.914E-08 alpha_mix =  0.300 |ddv_scf|^2 =  6.813E-16

     End of self-consistent calculation

     Convergence has been achieved 


     Representation #  14 mode #  14

     Self-consistent Calculation

      iter #   1 total cpu time :  1548.6 secs   av.it.:   6.8
      thresh= 1.000E-02 alpha_mix =  0.300 |ddv_scf|^2 =  4.474E-08

      iter #   2 total cpu time :  1558.5 secs   av.it.:  14.6
      thresh= 2.115E-05 alpha_mix =  0.300 |ddv_scf|^2 =  7.217E-09

      iter #   3 total cpu time :  1569.0 secs   av.it.:  15.5
      thresh= 8.495E-06 alpha_mix =  0.300 |ddv_scf|^2 =  1.981E-10

      iter #   4 total cpu time :  1580.2 secs   av.it.:  15.8
      thresh= 1.407E-06 alpha_mix =  0.300 |ddv_scf|^2 =  1.388E-11

      iter #   5 total cpu time :  1590.6 secs   av.it.:  15.6
      thresh= 3.726E-07 alpha_mix =  0.300 |ddv_scf|^2 =  5.996E-13

      iter #   6 total cpu time :  1600.7 secs   av.it.:  15.7
      thresh= 7.743E-08 alpha_mix =  0.300 |ddv_scf|^2 =  4.354E-14

      iter #   7 total cpu time :  1611.0 secs   av.it.:  16.4
      thresh= 2.087E-08 alpha_mix =  0.300 |ddv_scf|^2 =  8.695E-16

     End of self-consistent calculation

     Convergence has been achieved 


     Representation #  15 mode #  15

     Self-consistent Calculation

      iter #   1 total cpu time :  1627.1 secs   av.it.:   6.6
      thresh= 1.000E-02 alpha_mix =  0.300 |ddv_scf|^2 =  2.038E-08

      iter #   2 total cpu time :  1635.7 secs   av.it.:  14.7
      thresh= 1.427E-05 alpha_mix =  0.300 |ddv_scf|^2 =  3.774E-09

      iter #   3 total cpu time :  1647.2 secs   av.it.:  15.5
      thresh= 6.143E-06 alpha_mix =  0.300 |ddv_scf|^2 =  1.483E-10

      iter #   4 total cpu time :  1658.0 secs   av.it.:  15.7
      thresh= 1.218E-06 alpha_mix =  0.300 |ddv_scf|^2 =  1.249E-11

      iter #   5 total cpu time :  1670.1 secs   av.it.:  15.8
      thresh= 3.534E-07 alpha_mix =  0.300 |ddv_scf|^2 =  4.421E-13

      iter #   6 total cpu time :  1680.1 secs   av.it.:  15.7
      thresh= 6.649E-08 alpha_mix =  0.300 |ddv_scf|^2 =  4.654E-14

      iter #   7 total cpu time :  1692.3 secs   av.it.:  16.4
      thresh= 2.157E-08 alpha_mix =  0.300 |ddv_scf|^2 =  7.607E-16

     End of self-consistent calculation

     Convergence has been achieved 


     Representation #  16 modes #  16  17

     Self-consistent Calculation

      iter #   1 total cpu time :  1715.4 secs   av.it.:   7.1
      thresh= 1.000E-02 alpha_mix =  0.300 |ddv_scf|^2 =  2.787E-09

      iter #   2 total cpu time :  1731.7 secs   av.it.:  17.3
      thresh= 5.279E-06 alpha_mix =  0.300 |ddv_scf|^2 =  5.191E-10

      iter #   3 total cpu time :  1749.1 secs   av.it.:  17.7
      thresh= 2.278E-06 alpha_mix =  0.300 |ddv_scf|^2 =  4.632E-11

      iter #   4 total cpu time :  1769.1 secs   av.it.:  18.1
      thresh= 6.806E-07 alpha_mix =  0.300 |ddv_scf|^2 =  1.814E-12

      iter #   5 total cpu time :  1788.1 secs   av.it.:  18.0
      thresh= 1.347E-07 alpha_mix =  0.300 |ddv_scf|^2 =  1.528E-13

      iter #   6 total cpu time :  1805.4 secs   av.it.:  17.9
      thresh= 3.909E-08 alpha_mix =  0.300 |ddv_scf|^2 =  1.861E-14

      iter #   7 total cpu time :  1822.3 secs   av.it.:  18.2
      thresh= 1.364E-08 alpha_mix =  0.300 |ddv_scf|^2 =  2.499E-16

     End of self-consistent calculation

     Convergence has been achieved 


     Representation #  17 modes #  18  19

     Self-consistent Calculation

      iter #   1 total cpu time :  1849.5 secs   av.it.:   7.0
      thresh= 1.000E-02 alpha_mix =  0.300 |ddv_scf|^2 =  4.738E-09

      iter #   2 total cpu time :  1866.4 secs   av.it.:  17.2
      thresh= 6.883E-06 alpha_mix =  0.300 |ddv_scf|^2 =  1.029E-09

      iter #   3 total cpu time :  1884.1 secs   av.it.:  17.8
      thresh= 3.208E-06 alpha_mix =  0.300 |ddv_scf|^2 =  5.101E-11

      iter #   4 total cpu time :  1902.7 secs   av.it.:  18.0
      thresh= 7.142E-07 alpha_mix =  0.300 |ddv_scf|^2 =  3.848E-12

      iter #   5 total cpu time :  1920.8 secs   av.it.:  18.0
      thresh= 1.962E-07 alpha_mix =  0.300 |ddv_scf|^2 =  1.944E-13

      iter #   6 total cpu time :  1938.5 secs   av.it.:  17.7
      thresh= 4.409E-08 alpha_mix =  0.300 |ddv_scf|^2 =  3.230E-14

      iter #   7 total cpu time :  1955.4 secs   av.it.:  18.1
      thresh= 1.797E-08 alpha_mix =  0.300 |ddv_scf|^2 =  6.167E-16

     End of self-consistent calculation

     Convergence has been achieved 


     Representation #  18 modes #  20  21

     Self-consistent Calculation

      iter #   1 total cpu time :  1981.7 secs   av.it.:   7.0
      thresh= 1.000E-02 alpha_mix =  0.300 |ddv_scf|^2 =  2.346E-09

      iter #   2 total cpu time :  2000.1 secs   av.it.:  17.3
      thresh= 4.843E-06 alpha_mix =  0.300 |ddv_scf|^2 =  5.973E-10

      iter #   3 total cpu time :  2018.6 secs   av.it.:  17.9
      thresh= 2.444E-06 alpha_mix =  0.300 |ddv_scf|^2 =  2.930E-11

      iter #   4 total cpu time :  2036.7 secs   av.it.:  18.0
      thresh= 5.413E-07 alpha_mix =  0.300 |ddv_scf|^2 =  2.445E-12

      iter #   5 total cpu time :  2055.4 secs   av.it.:  18.0
      thresh= 1.564E-07 alpha_mix =  0.300 |ddv_scf|^2 =  1.226E-13

      iter #   6 total cpu time :  2073.9 secs   av.it.:  17.8
      thresh= 3.502E-08 alpha_mix =  0.300 |ddv_scf|^2 =  2.381E-14

      iter #   7 total cpu time :  2091.8 secs   av.it.:  18.3
      thresh= 1.543E-08 alpha_mix =  0.300 |ddv_scf|^2 =  3.775E-16

     End of self-consistent calculation

     Convergence has been achieved 


     Representation #  19 modes #  22  23

     Self-consistent Calculation

      iter #   1 total cpu time :  2120.9 secs   av.it.:   7.4
      thresh= 1.000E-02 alpha_mix =  0.300 |ddv_scf|^2 =  1.344E-08

      iter #   2 total cpu time :  2138.4 secs   av.it.:  17.0
      thresh= 1.159E-05 alpha_mix =  0.300 |ddv_scf|^2 =  1.662E-09

      iter #   3 total cpu time :  2157.2 secs   av.it.:  17.4
      thresh= 4.077E-06 alpha_mix =  0.300 |ddv_scf|^2 =  5.882E-11

      iter #   4 total cpu time :  2177.5 secs   av.it.:  18.3
      thresh= 7.669E-07 alpha_mix =  0.300 |ddv_scf|^2 =  1.411E-12

      iter #   5 total cpu time :  2194.9 secs   av.it.:  17.7
      thresh= 1.188E-07 alpha_mix =  0.300 |ddv_scf|^2 =  1.985E-13

      iter #   6 total cpu time :  2212.9 secs   av.it.:  17.9
      thresh= 4.456E-08 alpha_mix =  0.300 |ddv_scf|^2 =  2.310E-14

      iter #   7 total cpu time :  2229.8 secs   av.it.:  18.1
      thresh= 1.520E-08 alpha_mix =  0.300 |ddv_scf|^2 =  4.336E-16

     End of self-consistent calculation

     Convergence has been achieved 


     Representation #  20 modes #  24  25

     Self-consistent Calculation

      iter #   1 total cpu time :  2256.3 secs   av.it.:   7.5
      thresh= 1.000E-02 alpha_mix =  0.300 |ddv_scf|^2 =  1.670E-08

      iter #   2 total cpu time :  2274.5 secs   av.it.:  17.1
      thresh= 1.292E-05 alpha_mix =  0.300 |ddv_scf|^2 =  2.109E-09

      iter #   3 total cpu time :  2293.5 secs   av.it.:  17.6
      thresh= 4.592E-06 alpha_mix =  0.300 |ddv_scf|^2 =  5.869E-11

      iter #   4 total cpu time :  2314.2 secs   av.it.:  18.2
      thresh= 7.661E-07 alpha_mix =  0.300 |ddv_scf|^2 =  3.298E-12

      iter #   5 total cpu time :  2332.5 secs   av.it.:  18.0
      thresh= 1.816E-07 alpha_mix =  0.300 |ddv_scf|^2 =  1.744E-13

      iter #   6 total cpu time :  2351.4 secs   av.it.:  17.8
      thresh= 4.176E-08 alpha_mix =  0.300 |ddv_scf|^2 =  2.714E-14

      iter #   7 total cpu time :  2369.9 secs   av.it.:  18.2
      thresh= 1.647E-08 alpha_mix =  0.300 |ddv_scf|^2 =  3.474E-16

     End of self-consistent calculation

     Convergence has been achieved 


     Representation #  21 modes #  26  27

     Self-consistent Calculation

      iter #   1 total cpu time :  2402.4 secs   av.it.:   7.2
      thresh= 1.000E-02 alpha_mix =  0.300 |ddv_scf|^2 =  1.314E-08

      iter #   2 total cpu time :  2419.2 secs   av.it.:  16.9
      thresh= 1.146E-05 alpha_mix =  0.300 |ddv_scf|^2 =  1.914E-09

      iter #   3 total cpu time :  2436.3 secs   av.it.:  17.5
      thresh= 4.375E-06 alpha_mix =  0.300 |ddv_scf|^2 =  6.256E-11

      iter #   4 total cpu time :  2453.6 secs   av.it.:  17.9
      thresh= 7.910E-07 alpha_mix =  0.300 |ddv_scf|^2 =  4.137E-12

      iter #   5 total cpu time :  2472.0 secs   av.it.:  17.9
      thresh= 2.034E-07 alpha_mix =  0.300 |ddv_scf|^2 =  1.610E-13

      iter #   6 total cpu time :  2492.7 secs   av.it.:  17.7
      thresh= 4.012E-08 alpha_mix =  0.300 |ddv_scf|^2 =  2.267E-14

      iter #   7 total cpu time :  2510.0 secs   av.it.:  18.3
      thresh= 1.506E-08 alpha_mix =  0.300 |ddv_scf|^2 =  4.583E-16

     End of self-consistent calculation

     Convergence has been achieved 


     Representation #  22 modes #  28  29

     Self-consistent Calculation

      iter #   1 total cpu time :  2537.3 secs   av.it.:  10.7
      thresh= 1.000E-02 alpha_mix =  0.300 |ddv_scf|^2 =  6.044E-07

      iter #   2 total cpu time :  2554.9 secs   av.it.:  16.4
      thresh= 7.775E-05 alpha_mix =  0.300 |ddv_scf|^2 =  7.068E-08

      iter #   3 total cpu time :  2573.5 secs   av.it.:  16.9
      thresh= 2.659E-05 alpha_mix =  0.300 |ddv_scf|^2 =  8.260E-10

      iter #   4 total cpu time :  2593.6 secs   av.it.:  17.5
      thresh= 2.874E-06 alpha_mix =  0.300 |ddv_scf|^2 =  3.364E-11

      iter #   5 total cpu time :  2612.9 secs   av.it.:  17.2
      thresh= 5.800E-07 alpha_mix =  0.300 |ddv_scf|^2 =  4.840E-12

      iter #   6 total cpu time :  2631.3 secs   av.it.:  17.7
      thresh= 2.200E-07 alpha_mix =  0.300 |ddv_scf|^2 =  1.158E-13

      iter #   7 total cpu time :  2648.5 secs   av.it.:  17.6
      thresh= 3.402E-08 alpha_mix =  0.300 |ddv_scf|^2 =  5.447E-15

     End of self-consistent calculation

     Convergence has been achieved 


     Representation #  23 modes #  30  31

     Self-consistent Calculation

      iter #   1 total cpu time :  2679.1 secs   av.it.:   7.2
      thresh= 1.000E-02 alpha_mix =  0.300 |ddv_scf|^2 =  6.971E-09

      iter #   2 total cpu time :  2697.2 secs   av.it.:  17.2
      thresh= 8.349E-06 alpha_mix =  0.300 |ddv_scf|^2 =  1.298E-09

      iter #   3 total cpu time :  2714.9 secs   av.it.:  17.7
      thresh= 3.602E-06 alpha_mix =  0.300 |ddv_scf|^2 =  4.936E-11

      iter #   4 total cpu time :  2733.6 secs   av.it.:  18.0
      thresh= 7.026E-07 alpha_mix =  0.300 |ddv_scf|^2 =  3.878E-12

      iter #   5 total cpu time :  2751.9 secs   av.it.:  18.1
      thresh= 1.969E-07 alpha_mix =  0.300 |ddv_scf|^2 =  1.331E-13

      iter #   6 total cpu time :  2770.4 secs   av.it.:  17.8
      thresh= 3.648E-08 alpha_mix =  0.300 |ddv_scf|^2 =  2.374E-14

      iter #   7 total cpu time :  2788.9 secs   av.it.:  18.3
      thresh= 1.541E-08 alpha_mix =  0.300 |ddv_scf|^2 =  5.259E-16

     End of self-consistent calculation

     Convergence has been achieved 


     Representation #  24 modes #  32  33

     Self-consistent Calculation

      iter #   1 total cpu time :  2817.1 secs   av.it.:   7.1
      thresh= 1.000E-02 alpha_mix =  0.300 |ddv_scf|^2 =  4.165E-09

      iter #   2 total cpu time :  2836.8 secs   av.it.:  17.2
      thresh= 6.454E-06 alpha_mix =  0.300 |ddv_scf|^2 =  7.695E-10

      iter #   3 total cpu time :  2855.3 secs   av.it.:  17.7
      thresh= 2.774E-06 alpha_mix =  0.300 |ddv_scf|^2 =  5.212E-11

      iter #   4 total cpu time :  2872.6 secs   av.it.:  18.0
      thresh= 7.219E-07 alpha_mix =  0.300 |ddv_scf|^2 =  2.914E-12

      iter #   5 total cpu time :  2891.8 secs   av.it.:  18.0
      thresh= 1.707E-07 alpha_mix =  0.300 |ddv_scf|^2 =  1.429E-13

      iter #   6 total cpu time :  2910.0 secs   av.it.:  17.7
      thresh= 3.781E-08 alpha_mix =  0.300 |ddv_scf|^2 =  2.306E-14

      iter #   7 total cpu time :  2927.7 secs   av.it.:  18.1
      thresh= 1.519E-08 alpha_mix =  0.300 |ddv_scf|^2 =  5.311E-16

     End of self-consistent calculation

     Convergence has been achieved 
 
     Number of q in the star =    6
     List of q in the star:
          1   0.235702260   0.000000000   0.000000000
          2  -0.235702260   0.000000000   0.000000000
          3   0.000000000   0.000000000   0.235702260
          4   0.000000000   0.000000000  -0.235702260
          5   0.000000000   0.235702260   0.000000000
          6   0.000000000  -0.235702260   0.000000000

     Diagonalizing the dynamical matrix

     q = (    0.235702260   0.000000000   0.000000000 ) 

 **************************************************************************
     freq (    1) =       4.079612 [THz] =     136.081205 [cm-1]
     freq (    2) =       4.079612 [THz] =     136.081205 [cm-1]
     freq (    3) =       7.007616 [THz] =     233.748904 [cm-1]
     freq (    4) =      23.056237 [THz] =     769.073272 [cm-1]
     freq (    5) =      23.961171 [THz] =     799.258626 [cm-1]
     freq (    6) =      23.961171 [THz] =     799.258626 [cm-1]
     freq (    7) =      28.099503 [THz] =     937.298515 [cm-1]
     freq (    8) =      28.099503 [THz] =     937.298515 [cm-1]
     freq (    9) =      32.189940 [THz] =    1073.740814 [cm-1]
     freq (   10) =      36.782495 [THz] =    1226.931969 [cm-1]
     freq (   11) =      36.782495 [THz] =    1226.931969 [cm-1]
     freq (   12) =      38.574787 [THz] =    1286.716406 [cm-1]
     freq (   13) =      38.952285 [THz] =    1299.308381 [cm-1]
     freq (   14) =      40.632466 [THz] =    1355.353172 [cm-1]
     freq (   15) =      40.632466 [THz] =    1355.353172 [cm-1]
     freq (   16) =      40.978209 [THz] =    1366.885928 [cm-1]
     freq (   17) =      42.395830 [THz] =    1414.172663 [cm-1]
     freq (   18) =      42.629683 [THz] =    1421.973159 [cm-1]
     freq (   19) =      42.629683 [THz] =    1421.973159 [cm-1]
     freq (   20) =      43.677757 [THz] =    1456.933163 [cm-1]
     freq (   21) =      43.982478 [THz] =    1467.097558 [cm-1]
     freq (   22) =      44.525066 [THz] =    1485.196352 [cm-1]
     freq (   23) =      44.525066 [THz] =    1485.196352 [cm-1]
     freq (   24) =      49.368658 [THz] =    1646.761162 [cm-1]
     freq (   25) =      51.970029 [THz] =    1733.533568 [cm-1]
     freq (   26) =      53.628707 [THz] =    1788.861097 [cm-1]
     freq (   27) =      53.628707 [THz] =    1788.861097 [cm-1]
     freq (   28) =      54.168907 [THz] =    1806.880251 [cm-1]
     freq (   29) =      54.168907 [THz] =    1806.880251 [cm-1]
     freq (   30) =      54.272091 [THz] =    1810.322104 [cm-1]
     freq (   31) =      56.399178 [THz] =    1881.274068 [cm-1]
     freq (   32) =      59.373828 [THz] =    1980.497710 [cm-1]
     freq (   33) =      69.132308 [THz] =    2306.005572 [cm-1]
 **************************************************************************

     Mode symmetry, C_4v (4mm)  point group:

     freq (   1-   2) =        136.1  [cm-1]   --> E    G_5 D_5       
     freq (   3-   3) =        233.7  [cm-1]   --> A_1  G_1 D_1       
     freq (   4-   4) =        769.1  [cm-1]   --> B_2  G_4 D_2'      
     freq (   5-   6) =        799.3  [cm-1]   --> E    G_5 D_5       
     freq (   7-   8) =        937.3  [cm-1]   --> E    G_5 D_5       
     freq (   9-   9) =       1073.7  [cm-1]   --> A_1  G_1 D_1       
     freq (  10-  11) =       1226.9  [cm-1]   --> E    G_5 D_5       
     freq (  12-  12) =       1286.7  [cm-1]   --> A_2  G_2 D_1'      
     freq (  13-  13) =       1299.3  [cm-1]   --> B_2  G_4 D_2'      
     freq (  14-  15) =       1355.4  [cm-1]   --> E    G_5 D_5       
     freq (  16-  16) =       1366.9  [cm-1]   --> A_1  G_1 D_1       
     freq (  17-  17) =       1414.2  [cm-1]   --> A_2  G_2 D_1'      
     freq (  18-  19) =       1422.0  [cm-1]   --> E    G_5 D_5       
     freq (  20-  20) =       1456.9  [cm-1]   --> B_2  G_4 D_2'      
     freq (  21-  21) =       1467.1  [cm-1]   --> B_1  G_3 D_2       
     freq (  22-  23) =       1485.2  [cm-1]   --> E    G_5 D_5       
     freq (  24-  24) =       1646.8  [cm-1]   --> B_1  G_3 D_2       
     freq (  25-  25) =       1733.5  [cm-1]   --> A_1  G_1 D_1       
     freq (  26-  27) =       1788.9  [cm-1]   --> E    G_5 D_5       
     freq (  28-  29) =       1806.9  [cm-1]   --> E    G_5 D_5       
     freq (  30-  30) =       1810.3  [cm-1]   --> B_2  G_4 D_2'      
     freq (  31-  31) =       1881.3  [cm-1]   --> A_1  G_1 D_1       
     freq (  32-  32) =       1980.5  [cm-1]   --> B_2  G_4 D_2'      
     freq (  33-  33) =       2306.0  [cm-1]   --> A_1  G_1 D_1       
     Electron-phonon interaction  ...

     Gaussian Broadening:   0.005 Ry, ngauss=   0
     DOS =  4.794684 states/spin/Ry/Unit Cell at Ef= 22.110855 eV
     lambda(    1)=  0.0257   gamma=    1.96 GHz
     lambda(    2)=  0.0257   gamma=    1.95 GHz
     lambda(    3)=  0.1064   gamma=   23.92 GHz
     lambda(    4)=  0.0846   gamma=  206.02 GHz
     lambda(    5)=  0.0127   gamma=   33.40 GHz
     lambda(    6)=  0.0138   gamma=   36.18 GHz
     lambda(    7)=  0.0119   gamma=   43.05 GHz
     lambda(    8)=  0.0128   gamma=   46.45 GHz
     lambda(    9)=  0.0935   gamma=  443.38 GHz
     lambda(   10)=  0.0075   gamma=   46.41 GHz
     lambda(   11)=  0.0076   gamma=   46.98 GHz
     lambda(   12)=  0.0097   gamma=   66.17 GHz
     lambda(   13)=  0.0314   gamma=  218.08 GHz
     lambda(   14)=  0.0133   gamma=  100.39 GHz
     lambda(   15)=  0.0139   gamma=  105.16 GHz
     lambda(   16)=  0.2661   gamma= 2045.77 GHz
     lambda(   17)=  0.0013   gamma=   11.01 GHz
     lambda(   18)=  0.0220   gamma=  183.32 GHz
     lambda(   19)=  0.0232   gamma=  192.91 GHz
     lambda(   20)=  0.0281   gamma=  245.06 GHz
     lambda(   21)=  0.0469   gamma=  415.61 GHz
     lambda(   22)=  0.0159   gamma=  144.37 GHz
     lambda(   23)=  0.0167   gamma=  151.39 GHz
     lambda(   24)=  0.1238   gamma= 1381.17 GHz
     lambda(   25)=  0.1040   gamma= 1285.97 GHz
     lambda(   26)=  0.0169   gamma=  222.08 GHz
     lambda(   27)=  0.0187   gamma=  246.74 GHz
     lambda(   28)=  0.0062   gamma=   83.85 GHz
     lambda(   29)=  0.0063   gamma=   84.14 GHz
     lambda(   30)=  0.0197   gamma=  265.89 GHz
     lambda(   31)=  0.0590   gamma=  859.38 GHz
     lambda(   32)=  0.0147   gamma=  236.60 GHz
     lambda(   33)=  0.0440   gamma=  963.55 GHz
     Gaussian Broadening:   0.010 Ry, ngauss=   0
     DOS =  4.491154 states/spin/Ry/Unit Cell at Ef= 22.118081 eV
     lambda(    1)=  0.0301   gamma=    2.15 GHz
     lambda(    2)=  0.0288   gamma=    2.06 GHz
     lambda(    3)=  0.0705   gamma=   14.84 GHz
     lambda(    4)=  0.0892   gamma=  203.25 GHz
     lambda(    5)=  0.0263   gamma=   64.86 GHz
     lambda(    6)=  0.0276   gamma=   68.01 GHz
     lambda(    7)=  0.0100   gamma=   33.81 GHz
     lambda(    8)=  0.0104   gamma=   35.31 GHz
     lambda(    9)=  0.0491   gamma=  217.99 GHz
     lambda(   10)=  0.0161   gamma=   93.47 GHz
     lambda(   11)=  0.0145   gamma=   83.90 GHz
     lambda(   12)=  0.0088   gamma=   56.41 GHz
     lambda(   13)=  0.0156   gamma=  101.78 GHz
     lambda(   14)=  0.0184   gamma=  130.13 GHz
     lambda(   15)=  0.0189   gamma=  133.77 GHz
     lambda(   16)=  0.1322   gamma=  951.82 GHz
     lambda(   17)=  0.0014   gamma=   10.82 GHz
     lambda(   18)=  0.0238   gamma=  185.20 GHz
     lambda(   19)=  0.0247   gamma=  192.32 GHz
     lambda(   20)=  0.0250   gamma=  204.45 GHz
     lambda(   21)=  0.0372   gamma=  308.63 GHz
     lambda(   22)=  0.0135   gamma=  114.58 GHz
     lambda(   23)=  0.0143   gamma=  121.58 GHz
     lambda(   24)=  0.0695   gamma=  726.36 GHz
     lambda(   25)=  0.0644   gamma=  746.27 GHz
     lambda(   26)=  0.0153   gamma=  188.79 GHz
     lambda(   27)=  0.0163   gamma=  201.67 GHz
     lambda(   28)=  0.0088   gamma=  111.21 GHz
     lambda(   29)=  0.0087   gamma=  109.98 GHz
     lambda(   30)=  0.0261   gamma=  329.57 GHz
     lambda(   31)=  0.0346   gamma=  472.03 GHz
     lambda(   32)=  0.0165   gamma=  249.42 GHz
     lambda(   33)=  0.0263   gamma=  539.46 GHz
     Gaussian Broadening:   0.015 Ry, ngauss=   0
     DOS =  4.448291 states/spin/Ry/Unit Cell at Ef= 22.124358 eV
     lambda(    1)=  0.0343   gamma=    2.42 GHz
     lambda(    2)=  0.0333   gamma=    2.35 GHz
     lambda(    3)=  0.0615   gamma=   12.83 GHz
     lambda(    4)=  0.0928   gamma=  209.60 GHz
     lambda(    5)=  0.0345   gamma=   84.06 GHz
     lambda(    6)=  0.0352   gamma=   85.78 GHz
     lambda(    7)=  0.0098   gamma=   32.81 GHz
     lambda(    8)=  0.0100   gamma=   33.46 GHz
     lambda(    9)=  0.0430   gamma=  189.26 GHz
     lambda(   10)=  0.0205   gamma=  117.60 GHz
     lambda(   11)=  0.0190   gamma=  109.09 GHz
     lambda(   12)=  0.0112   gamma=   70.75 GHz
     lambda(   13)=  0.0170   gamma=  109.45 GHz
     lambda(   14)=  0.0207   gamma=  145.27 GHz
     lambda(   15)=  0.0209   gamma=  146.70 GHz
     lambda(   16)=  0.0980   gamma=  698.72 GHz
     lambda(   17)=  0.0016   gamma=   12.15 GHz
     lambda(   18)=  0.0265   gamma=  204.23 GHz
     lambda(   19)=  0.0269   gamma=  207.62 GHz
     lambda(   20)=  0.0221   gamma=  178.69 GHz
     lambda(   21)=  0.0319   gamma=  262.32 GHz
     lambda(   22)=  0.0141   gamma=  118.41 GHz
     lambda(   23)=  0.0146   gamma=  122.78 GHz
     lambda(   24)=  0.0576   gamma=  596.70 GHz
     lambda(   25)=  0.0553   gamma=  634.36 GHz
     lambda(   26)=  0.0163   gamma=  199.49 GHz
     lambda(   27)=  0.0169   gamma=  206.79 GHz
     lambda(   28)=  0.0113   gamma=  141.34 GHz
     lambda(   29)=  0.0112   gamma=  140.01 GHz
     lambda(   30)=  0.0253   gamma=  315.98 GHz
     lambda(   31)=  0.0314   gamma=  424.43 GHz
     lambda(   32)=  0.0168   gamma=  252.17 GHz
     lambda(   33)=  0.0254   gamma=  515.44 GHz
     Gaussian Broadening:   0.020 Ry, ngauss=   0
     DOS =  4.528357 states/spin/Ry/Unit Cell at Ef= 22.128042 eV
     lambda(    1)=  0.0366   gamma=    2.64 GHz
     lambda(    2)=  0.0363   gamma=    2.61 GHz
     lambda(    3)=  0.0549   gamma=   11.67 GHz
     lambda(    4)=  0.0970   gamma=  223.00 GHz
     lambda(    5)=  0.0386   gamma=   95.88 GHz
     lambda(    6)=  0.0385   gamma=   95.69 GHz
     lambda(    7)=  0.0095   gamma=   32.61 GHz
     lambda(    8)=  0.0096   gamma=   32.86 GHz
     lambda(    9)=  0.0404   gamma=  180.87 GHz
     lambda(   10)=  0.0216   gamma=  126.43 GHz
     lambda(   11)=  0.0210   gamma=  122.82 GHz
     lambda(   12)=  0.0127   gamma=   81.94 GHz
     lambda(   13)=  0.0215   gamma=  141.15 GHz
     lambda(   14)=  0.0206   gamma=  147.27 GHz
     lambda(   15)=  0.0205   gamma=  146.57 GHz
     lambda(   16)=  0.0840   gamma=  610.29 GHz
     lambda(   17)=  0.0017   gamma=   13.36 GHz
     lambda(   18)=  0.0270   gamma=  212.13 GHz
     lambda(   19)=  0.0271   gamma=  213.07 GHz
     lambda(   20)=  0.0202   gamma=  166.41 GHz
     lambda(   21)=  0.0282   gamma=  236.21 GHz
     lambda(   22)=  0.0145   gamma=  123.96 GHz
     lambda(   23)=  0.0148   gamma=  126.87 GHz
     lambda(   24)=  0.0518   gamma=  545.47 GHz
     lambda(   25)=  0.0513   gamma=  598.64 GHz
     lambda(   26)=  0.0186   gamma=  231.41 GHz
     lambda(   27)=  0.0190   gamma=  236.22 GHz
     lambda(   28)=  0.0120   gamma=  151.99 GHz
     lambda(   29)=  0.0119   gamma=  151.15 GHz
     lambda(   30)=  0.0227   gamma=  289.26 GHz
     lambda(   31)=  0.0299   gamma=  411.47 GHz
     lambda(   32)=  0.0167   gamma=  254.78 GHz
     lambda(   33)=  0.0253   gamma=  523.41 GHz
     Gaussian Broadening:   0.025 Ry, ngauss=   0
     DOS =  4.634996 states/spin/Ry/Unit Cell at Ef= 22.128678 eV
     lambda(    1)=  0.0374   gamma=    2.75 GHz
     lambda(    2)=  0.0374   gamma=    2.75 GHz
     lambda(    3)=  0.0504   gamma=   10.96 GHz
     lambda(    4)=  0.0967   gamma=  227.52 GHz
     lambda(    5)=  0.0399   gamma=  101.31 GHz
     lambda(    6)=  0.0394   gamma=  100.22 GHz
     lambda(    7)=  0.0094   gamma=   32.71 GHz
     lambda(    8)=  0.0094   gamma=   32.77 GHz
     lambda(    9)=  0.0387   gamma=  177.30 GHz
     lambda(   10)=  0.0219   gamma=  131.40 GHz
     lambda(   11)=  0.0218   gamma=  130.72 GHz
     lambda(   12)=  0.0133   gamma=   87.55 GHz
     lambda(   13)=  0.0247   gamma=  165.90 GHz
     lambda(   14)=  0.0202   gamma=  147.40 GHz
     lambda(   15)=  0.0199   gamma=  145.67 GHz
     lambda(   16)=  0.0765   gamma=  568.33 GHz
     lambda(   17)=  0.0018   gamma=   14.07 GHz
     lambda(   18)=  0.0268   gamma=  215.63 GHz
     lambda(   19)=  0.0268   gamma=  215.32 GHz
     lambda(   20)=  0.0186   gamma=  157.35 GHz
     lambda(   21)=  0.0261   gamma=  223.81 GHz
     lambda(   22)=  0.0146   gamma=  127.98 GHz
     lambda(   23)=  0.0148   gamma=  130.07 GHz
     lambda(   24)=  0.0481   gamma=  518.96 GHz
     lambda(   25)=  0.0488   gamma=  582.95 GHz
     lambda(   26)=  0.0200   gamma=  254.58 GHz
     lambda(   27)=  0.0203   gamma=  258.37 GHz
     lambda(   28)=  0.0120   gamma=  155.77 GHz
     lambda(   29)=  0.0120   gamma=  155.27 GHz
     lambda(   30)=  0.0204   gamma=  265.92 GHz
     lambda(   31)=  0.0288   gamma=  405.80 GHz
     lambda(   32)=  0.0159   gamma=  248.58 GHz
     lambda(   33)=  0.0252   gamma=  533.67 GHz
     Gaussian Broadening:   0.030 Ry, ngauss=   0
     DOS =  4.755068 states/spin/Ry/Unit Cell at Ef= 22.126761 eV
     lambda(    1)=  0.0370   gamma=    2.79 GHz
     lambda(    2)=  0.0371   gamma=    2.81 GHz
     lambda(    3)=  0.0476   gamma=   10.61 GHz
     lambda(    4)=  0.0927   gamma=  223.86 GHz
     lambda(    5)=  0.0394   gamma=  102.81 GHz
     lambda(    6)=  0.0389   gamma=  101.47 GHz
     lambda(    7)=  0.0093   gamma=   33.30 GHz
     lambda(    8)=  0.0093   gamma=   33.27 GHz
     lambda(    9)=  0.0372   gamma=  174.88 GHz
     lambda(   10)=  0.0222   gamma=  136.27 GHz
     lambda(   11)=  0.0223   gamma=  136.93 GHz
     lambda(   12)=  0.0135   gamma=   90.93 GHz
     lambda(   13)=  0.0260   gamma=  179.10 GHz
     lambda(   14)=  0.0198   gamma=  148.40 GHz
     lambda(   15)=  0.0195   gamma=  146.29 GHz
     lambda(   16)=  0.0712   gamma=  543.09 GHz
     lambda(   17)=  0.0018   gamma=   14.74 GHz
     lambda(   18)=  0.0264   gamma=  217.90 GHz
     lambda(   19)=  0.0263   gamma=  217.21 GHz
     lambda(   20)=  0.0172   gamma=  149.38 GHz
     lambda(   21)=  0.0249   gamma=  218.35 GHz
     lambda(   22)=  0.0145   gamma=  130.89 GHz
     lambda(   23)=  0.0147   gamma=  132.45 GHz
     lambda(   24)=  0.0456   gamma=  505.01 GHz
     lambda(   25)=  0.0467   gamma=  573.34 GHz
     lambda(   26)=  0.0204   gamma=  265.82 GHz
     lambda(   27)=  0.0206   gamma=  269.05 GHz
     lambda(   28)=  0.0119   gamma=  159.13 GHz
     lambda(   29)=  0.0119   gamma=  158.84 GHz
     lambda(   30)=  0.0187   gamma=  250.04 GHz
     lambda(   31)=  0.0276   gamma=  399.32 GHz
     lambda(   32)=  0.0148   gamma=  236.61 GHz
     lambda(   33)=  0.0251   gamma=  544.09 GHz
     Gaussian Broadening:   0.035 Ry, ngauss=   0
     DOS =  4.903732 states/spin/Ry/Unit Cell at Ef= 22.122264 eV
     lambda(    1)=  0.0361   gamma=    2.81 GHz
     lambda(    2)=  0.0362   gamma=    2.83 GHz
     lambda(    3)=  0.0455   gamma=   10.46 GHz
     lambda(    4)=  0.0870   gamma=  216.64 GHz
     lambda(    5)=  0.0383   gamma=  102.99 GHz
     lambda(    6)=  0.0378   gamma=  101.71 GHz
     lambda(    7)=  0.0094   gamma=   34.63 GHz
     lambda(    8)=  0.0094   gamma=   34.59 GHz
     lambda(    9)=  0.0356   gamma=  172.85 GHz
     lambda(   10)=  0.0225   gamma=  142.33 GHz
     lambda(   11)=  0.0226   gamma=  143.41 GHz
     lambda(   12)=  0.0136   gamma=   94.76 GHz
     lambda(   13)=  0.0260   gamma=  184.46 GHz
     lambda(   14)=  0.0195   gamma=  150.88 GHz
     lambda(   15)=  0.0192   gamma=  148.70 GHz
     lambda(   16)=  0.0668   gamma=  524.99 GHz
     lambda(   17)=  0.0019   gamma=   15.74 GHz
     lambda(   18)=  0.0259   gamma=  220.68 GHz
     lambda(   19)=  0.0259   gamma=  220.02 GHz
     lambda(   20)=  0.0160   gamma=  142.62 GHz
     lambda(   21)=  0.0240   gamma=  217.13 GHz
     lambda(   22)=  0.0144   gamma=  133.87 GHz
     lambda(   23)=  0.0145   gamma=  135.06 GHz
     lambda(   24)=  0.0437   gamma=  499.11 GHz
     lambda(   25)=  0.0448   gamma=  566.79 GHz
     lambda(   26)=  0.0201   gamma=  270.73 GHz
     lambda(   27)=  0.0203   gamma=  273.57 GHz
     lambda(   28)=  0.0120   gamma=  164.20 GHz
     lambda(   29)=  0.0119   gamma=  164.03 GHz
     lambda(   30)=  0.0175   gamma=  241.36 GHz
     lambda(   31)=  0.0263   gamma=  391.43 GHz
     lambda(   32)=  0.0135   gamma=  223.24 GHz
     lambda(   33)=  0.0248   gamma=  554.16 GHz
     Gaussian Broadening:   0.040 Ry, ngauss=   0
     DOS =  5.088867 states/spin/Ry/Unit Cell at Ef= 22.114955 eV
     lambda(    1)=  0.0350   gamma=    2.83 GHz
     lambda(    2)=  0.0352   gamma=    2.85 GHz
     lambda(    3)=  0.0437   gamma=   10.42 GHz
     lambda(    4)=  0.0809   gamma=  208.95 GHz
     lambda(    5)=  0.0370   gamma=  103.25 GHz
     lambda(    6)=  0.0366   gamma=  102.15 GHz
     lambda(    7)=  0.0096   gamma=   36.82 GHz
     lambda(    8)=  0.0096   gamma=   36.80 GHz
     lambda(    9)=  0.0340   gamma=  171.26 GHz
     lambda(   10)=  0.0227   gamma=  149.30 GHz
     lambda(   11)=  0.0229   gamma=  150.38 GHz
     lambda(   12)=  0.0138   gamma=   99.79 GHz
     lambda(   13)=  0.0252   gamma=  185.73 GHz
     lambda(   14)=  0.0193   gamma=  154.67 GHz
     lambda(   15)=  0.0190   gamma=  152.56 GHz
     lambda(   16)=  0.0627   gamma=  511.32 GHz
     lambda(   17)=  0.0020   gamma=   17.23 GHz
     lambda(   18)=  0.0254   gamma=  224.68 GHz
     lambda(   19)=  0.0254   gamma=  224.19 GHz
     lambda(   20)=  0.0148   gamma=  137.41 GHz
     lambda(   21)=  0.0233   gamma=  219.31 GHz
     lambda(   22)=  0.0143   gamma=  137.71 GHz
     lambda(   23)=  0.0144   gamma=  138.64 GHz
     lambda(   24)=  0.0421   gamma=  498.58 GHz
     lambda(   25)=  0.0429   gamma=  562.75 GHz
     lambda(   26)=  0.0196   gamma=  273.73 GHz
     lambda(   27)=  0.0198   gamma=  276.31 GHz
     lambda(   28)=  0.0120   gamma=  170.95 GHz
     lambda(   29)=  0.0120   gamma=  170.88 GHz
     lambda(   30)=  0.0167   gamma=  238.39 GHz
     lambda(   31)=  0.0248   gamma=  383.75 GHz
     lambda(   32)=  0.0123   gamma=  210.81 GHz
     lambda(   33)=  0.0243   gamma=  563.33 GHz
     Gaussian Broadening:   0.045 Ry, ngauss=   0
     DOS =  5.309480 states/spin/Ry/Unit Cell at Ef= 22.104685 eV
     lambda(    1)=  0.0340   gamma=    2.87 GHz
     lambda(    2)=  0.0342   gamma=    2.88 GHz
     lambda(    3)=  0.0418   gamma=   10.42 GHz
     lambda(    4)=  0.0750   gamma=  202.20 GHz
     lambda(    5)=  0.0358   gamma=  104.12 GHz
     lambda(    6)=  0.0355   gamma=  103.22 GHz
     lambda(    7)=  0.0099   gamma=   39.79 GHz
     lambda(    8)=  0.0099   gamma=   39.80 GHz
     lambda(    9)=  0.0324   gamma=  170.12 GHz
     lambda(   10)=  0.0228   gamma=  156.54 GHz
     lambda(   11)=  0.0230   gamma=  157.49 GHz
     lambda(   12)=  0.0140   gamma=  105.72 GHz
     lambda(   13)=  0.0241   gamma=  185.26 GHz
     lambda(   14)=  0.0190   gamma=  159.41 GHz
     lambda(   15)=  0.0188   gamma=  157.43 GHz
     lambda(   16)=  0.0589   gamma=  501.15 GHz
     lambda(   17)=  0.0021   gamma=   19.22 GHz
     lambda(   18)=  0.0250   gamma=  229.93 GHz
     lambda(   19)=  0.0249   gamma=  229.62 GHz
     lambda(   20)=  0.0138   gamma=  133.80 GHz
     lambda(   21)=  0.0229   gamma=  224.29 GHz
     lambda(   22)=  0.0142   gamma=  142.68 GHz
     lambda(   23)=  0.0143   gamma=  143.41 GHz
     lambda(   24)=  0.0406   gamma=  501.67 GHz
     lambda(   25)=  0.0410   gamma=  560.89 GHz
     lambda(   26)=  0.0190   gamma=  276.92 GHz
     lambda(   27)=  0.0192   gamma=  279.37 GHz
     lambda(   28)=  0.0120   gamma=  178.75 GHz
     lambda(   29)=  0.0120   gamma=  178.78 GHz
     lambda(   30)=  0.0160   gamma=  239.55 GHz
     lambda(   31)=  0.0234   gamma=  377.24 GHz
     lambda(   32)=  0.0112   gamma=  200.07 GHz
     lambda(   33)=  0.0236   gamma=  570.68 GHz
     Gaussian Broadening:   0.050 Ry, ngauss=   0
     DOS =  5.560451 states/spin/Ry/Unit Cell at Ef= 22.091444 eV
     lambda(    1)=  0.0332   gamma=    2.93 GHz
     lambda(    2)=  0.0333   gamma=    2.94 GHz
     lambda(    3)=  0.0399   gamma=   10.41 GHz
     lambda(    4)=  0.0697   gamma=  196.71 GHz
     lambda(    5)=  0.0347   gamma=  105.64 GHz
     lambda(    6)=  0.0344   gamma=  104.91 GHz
     lambda(    7)=  0.0103   gamma=   43.31 GHz
     lambda(    8)=  0.0103   gamma=   43.36 GHz
     lambda(    9)=  0.0308   gamma=  169.35 GHz
     lambda(   10)=  0.0228   gamma=  163.57 GHz
     lambda(   11)=  0.0229   gamma=  164.39 GHz
     lambda(   12)=  0.0142   gamma=  111.97 GHz
     lambda(   13)=  0.0229   gamma=  184.32 GHz
     lambda(   14)=  0.0188   gamma=  164.83 GHz
     lambda(   15)=  0.0186   gamma=  162.98 GHz
     lambda(   16)=  0.0554   gamma=  493.74 GHz
     lambda(   17)=  0.0023   gamma=   21.70 GHz
     lambda(   18)=  0.0245   gamma=  236.16 GHz
     lambda(   19)=  0.0245   gamma=  236.00 GHz
     lambda(   20)=  0.0130   gamma=  131.57 GHz
     lambda(   21)=  0.0225   gamma=  231.39 GHz
     lambda(   22)=  0.0141   gamma=  148.69 GHz
     lambda(   23)=  0.0142   gamma=  149.28 GHz
     lambda(   24)=  0.0392   gamma=  507.30 GHz
     lambda(   25)=  0.0391   gamma=  560.82 GHz
     lambda(   26)=  0.0184   gamma=  280.89 GHz
     lambda(   27)=  0.0186   gamma=  283.29 GHz
     lambda(   28)=  0.0120   gamma=  187.03 GHz
     lambda(   29)=  0.0120   gamma=  187.15 GHz
     lambda(   30)=  0.0156   gamma=  243.36 GHz
     lambda(   31)=  0.0220   gamma=  372.05 GHz
     lambda(   32)=  0.0102   gamma=  190.97 GHz
     lambda(   33)=  0.0227   gamma=  575.45 GHz
 
 
     Number of q in the star =    6
     List of q in the star:
          1   0.235702260   0.000000000   0.000000000
          2  -0.235702260   0.000000000   0.000000000
          3   0.000000000   0.000000000   0.235702260
          4   0.000000000   0.000000000  -0.235702260
          5   0.000000000   0.235702260   0.000000000
          6   0.000000000  -0.235702260   0.000000000
 
     init_run     :      0.43s CPU      0.64s WALL (       1 calls)
     electrons    :      9.50s CPU     11.96s WALL (       1 calls)

     Called by init_run:
     wfcinit      :      0.00s CPU      0.02s WALL (       1 calls)
     potinit      :      0.20s CPU      0.37s WALL (       1 calls)
     hinit0       :      0.10s CPU      0.11s WALL (       1 calls)

     Called by electrons:
     c_bands      :      9.49s CPU     11.94s WALL (       1 calls)
     v_of_rho     :      0.02s CPU      0.03s WALL (       2 calls)
     newd         :      0.05s CPU      0.14s WALL (       2 calls)
     PAW_pot      :      0.37s CPU      0.41s WALL (       2 calls)

     Called by c_bands:
     init_us_2    :      1.83s CPU      2.12s WALL (   21016 calls)
     cegterg      :      5.35s CPU      5.68s WALL (     169 calls)

     Called by *egterg:
     cdiaghg      :      1.65s CPU      1.73s WALL (    2878 calls)
     h_psi        :    587.09s CPU    738.51s WALL (  418397 calls)
     s_psi        :     17.82s CPU     19.37s WALL (  853653 calls)
     g_psi        :      0.02s CPU      0.02s WALL (    2730 calls)

     Called by h_psi:
     h_psi:calbec :     12.93s CPU     14.03s WALL (  418397 calls)
     vloc_psi     :    561.62s CPU    710.89s WALL (  418397 calls)
     add_vuspsi   :      9.25s CPU     10.06s WALL (  418397 calls)

     General routines
     calbec       :     53.77s CPU     56.44s WALL (  886805 calls)
     fft          :      1.82s CPU      2.41s WALL (    5795 calls)
     ffts         :     39.46s CPU     62.37s WALL (    3840 calls)
     fftw         :    790.79s CPU   1091.43s WALL ( 7936802 calls)
     interpolate  :      0.81s CPU      1.18s WALL (     573 calls)
     davcio       :      8.73s CPU    484.77s WALL (  103844 calls)
 
     Parallel routines
 
     PHONON       :  31m40.97s CPU  49m27.72s WALL

     INITIALIZATION: 
     phq_setup    :      0.02s CPU      0.10s WALL (       1 calls)
     phq_init     :     14.05s CPU     17.57s WALL (       1 calls)
 
     phq_init     :     14.05s CPU     17.57s WALL (       1 calls)
     set_drhoc    :      0.00s CPU      0.00s WALL (       3 calls)
     init_vloc    :      0.00s CPU      0.07s WALL (       2 calls)
     init_us_1    :      0.15s CPU      0.27s WALL (       2 calls)
     init_us_2    :      1.83s CPU      2.12s WALL (   21016 calls)
     newd         :      0.05s CPU      0.14s WALL (       2 calls)
     dvanqq       :      1.63s CPU      1.65s WALL (       1 calls)
     drho         :      9.11s CPU     11.60s WALL (       1 calls)
     drhous       :      3.75s CPU      4.71s WALL (       1 calls)
     nldyntot     :      0.27s CPU      0.27s WALL (       1 calls)
 
     DYNAMICAL MATRIX:
     dynmat0      :      1.80s CPU      2.22s WALL (       1 calls)
     dynmat_us    :      1.75s CPU      2.16s WALL (       1 calls)
     addusdynmat  :      0.00s CPU      0.00s WALL (       1 calls)
     d2ionq       :      0.04s CPU      0.04s WALL (       1 calls)
     dynmatcc     :      0.01s CPU      0.01s WALL (       1 calls)
     phqscf       :   1849.04s CPU   2901.27s WALL (       1 calls)
     dynmatrix    :      0.25s CPU      0.35s WALL (       1 calls)
 
     phqscf       :   1849.04s CPU   2901.27s WALL (       1 calls)
     solve_linter :   1820.96s CPU   2849.96s WALL (      24 calls)
     sth_kernel   :   1380.87s CPU   2015.29s WALL (     206 calls)
     h_prec       :    321.57s CPU    326.75s WALL (   15244 calls)
     apply_dpot_b :    163.68s CPU    252.26s WALL (   19906 calls)
     ortho        :     26.60s CPU     27.36s WALL (   19906 calls)
     cgsolve      :    641.00s CPU    797.12s WALL (   19906 calls)
     incdrhoscf   :    144.04s CPU    213.61s WALL (   19906 calls)
                                        0.00s GPU  (   19906 calls)
     addusddens   :     22.04s CPU     29.57s WALL (     230 calls)
     vpsifft      :     34.24s CPU     54.38s WALL (    2442 calls)
     dv_of_drho   :      2.41s CPU      2.69s WALL (     269 calls)
     mix_pot      :     45.64s CPU    145.98s WALL (     206 calls)
     drhodv       :     28.03s CPU     35.32s WALL (      24 calls)
     psymdvscf    :     40.75s CPU     41.14s WALL (     206 calls)
     newdq        :     23.00s CPU     23.16s WALL (     206 calls)
     adddvscf     :      2.34s CPU      2.58s WALL (   19906 calls)
     com_dvloc    :     39.04s CPU     61.64s WALL (    3267 calls)
                                        0.00s GPU  (    3267 calls)
     addcore      :      0.42s CPU      0.51s WALL (    1391 calls)
                                        0.00s GPU  (    1391 calls)
     drhodvus     :     11.76s CPU     39.07s WALL (      24 calls)
 
     dvqpsi_us    :     49.56s CPU     72.71s WALL (    2442 calls)
                                        0.00s GPU  (    2442 calls)
     dvqpsi_us_on :      7.14s CPU      7.24s WALL (    2442 calls)
 
     add_vuspsi   :      9.25s CPU     10.06s WALL (  418397 calls)
     addusdbec    :      1.26s CPU      1.35s WALL (   22348 calls)
 
     drhodvus     :     11.76s CPU     39.07s WALL (      24 calls)
 
      Electron-phonon coupling
     elphel       :     41.77s CPU     84.09s WALL (      24 calls)
     elphsum      :     26.70s CPU     27.36s WALL (       1 calls)
 
      General routines
     calbec       :     53.77s CPU     56.44s WALL (  886805 calls)
     fft          :      1.82s CPU      2.41s WALL (    5795 calls)
     ffts         :     39.46s CPU     62.37s WALL (    3840 calls)
     fftw         :    790.79s CPU   1091.43s WALL ( 7936802 calls)
     davcio       :      8.73s CPU    484.77s WALL (  103844 calls)
     write_rec    :      0.35s CPU    153.24s WALL (     230 calls)
 
      Additional routines
     ch_psi       :    632.15s CPU    787.43s WALL (  415350 calls)
     last         :     35.03s CPU     38.01s WALL (  415350 calls)
     Hesh         :      1.17s CPU      1.31s WALL (  415350 calls)
     ch_psi_all_k :     31.92s CPU     34.64s WALL (  415350 calls)
                                        0.00s GPU  (  415350 calls)
     ch_psi_calbe :     10.54s CPU     11.37s WALL (  415350 calls)
                                        0.00s GPU  (  415350 calls)
     h_psi_bgrp   :    587.95s CPU    739.41s WALL (  418397 calls)
     h_psi        :    587.09s CPU    738.51s WALL (  418397 calls)
     h_psi:pot    :    585.63s CPU    736.89s WALL (  418397 calls)
     h_psi:calbec :     12.93s CPU     14.03s WALL (  418397 calls)
     s_psi_bgrp   :     20.56s CPU     22.33s WALL (  853653 calls)
     s_psi        :     17.82s CPU     19.37s WALL (  853653 calls)
 
 
     PHONON       :  31m40.97s CPU  49m27.72s WALL

 
   This run was terminated on:  17:36:18  22Oct2025            

=------------------------------------------------------------------------------=
   JOB DONE.
=------------------------------------------------------------------------------=
