
     Program PHONON v.7.4.1 starts on 22Oct2025 at 16: 1:51 

     This program is part of the open-source Quantum ESPRESSO suite
     for quantum simulation of materials; please cite
         "P. Giannozzi et al., J. Phys.:Condens. Matter 21 395502 (2009);
         "P. Giannozzi et al., J. Phys.:Condens. Matter 29 465901 (2017);
         "P. Giannozzi et al., J. Chem. Phys. 152 154105 (2020);
          URL http://www.quantum-espresso.org", 
     in publications or presentations arising from this work. More details at
     http://www.quantum-espresso.org/quote

     Parallel version (MPI), running on    48 processors

     MPI processes distributed on     1 nodes
     180996 MiB available memory on the printing compute node when the environment starts
 
     Waiting for input...
     Reading input from standard input

     Reading xml data from directory:

     ./tmp/Ce1H10.save/
 
     K-points division:     npool     =       4
     R & G space division:  proc/nbgrp/npool/nimage =      12
     Subspace diagonalization in iterative solution of the eigenvalue problem:
     a serial algorithm will be used

     file Ce.paw.z_12.atompaw.wentzcovitch.v1.2.upf: wavefunction(s)  6S 0P 5D 0D 4F 0F renormalized
     file H.pbe-kjpaw_psl.1.0.0.UPF: wavefunction(s)  1S renormalized

     IMPORTANT: XC functional enforced from input :
     Exchange-correlation= PBE
                           (   1   4   3   4   0   0   0)
     Any further DFT definition will be discarded
     Please, verify this is what you really want

 
     Parallelization info
     --------------------
     sticks:   dense  smooth     PW     G-vecs:    dense   smooth      PW
     Min         226      76     22                 7730     1493     247
     Max         227      77     23                 7733     1495     249
     Sum        2713     913    271                92769    17933    2975
 
     Using Slab Decomposition
 
     Reading collected, re-writing distributed wavefunctions in ./tmp/


     Dynamical matrices for ( 6, 6, 6)  uniform grid of q-points
     (  16 q-points):
       N         xq(1)         xq(2)         xq(3) 
       1   0.000000000   0.000000000   0.000000000
       2   0.117851130   0.117851130  -0.117851130
       3   0.235702260   0.235702260  -0.235702260
       4  -0.353553391  -0.353553391   0.353553391
       5   0.235702260   0.000000000   0.000000000
       6   0.353553391   0.117851130  -0.117851130
       7  -0.235702260  -0.471404521   0.471404521
       8  -0.117851130  -0.353553391   0.353553391
       9   0.000000000  -0.235702260   0.235702260
      10   0.471404521   0.000000000   0.000000000
      11  -0.117851130  -0.589255651   0.589255651
      12  -0.000000000  -0.471404521   0.471404521
      13  -0.707106781   0.000000000   0.000000000
      14  -0.235702260  -0.471404521   0.707106781
      15  -0.117851130  -0.353553391   0.589255651
      16  -0.707106781   0.235702260   0.000000000

     Number and degeneracy of irreps per q-point
       N         xq(1)         xq(2)         xq(3)   N irreps
       1   0.000000000   0.000000000   0.000000000      13
        1   2   3   3   3   3   1   2   3   3   3   3   3
       2   0.117851130   0.117851130  -0.117851130      22
        1   1   1   1   1   1   1   1   1   1   1   2   2   2   2   2   2   2
   2   2   2   2
       3   0.235702260   0.235702260  -0.235702260      22
        1   1   1   1   1   1   1   1   1   1   1   2   2   2   2   2   2   2
   2   2   2   2
       4  -0.353553391  -0.353553391   0.353553391      22
        1   1   1   1   1   1   2   2   2   2   2   2   1   1   1   1   1   2
   2   2   2   2
       5   0.235702260   0.000000000   0.000000000      24
        1   1   1   1   1   1   1   1   1   1   1   1   1   1   1   2   2   2
   2   2   2   2   2   2
       6   0.353553391   0.117851130  -0.117851130      33
     No degeneracy
       7  -0.235702260  -0.471404521   0.471404521      33
     No degeneracy
       8  -0.117851130  -0.353553391   0.353553391      33
     No degeneracy
       9   0.000000000  -0.235702260   0.235702260      33
     No degeneracy
      10   0.471404521   0.000000000   0.000000000      24
        1   1   1   1   1   1   1   1   1   1   1   1   1   1   1   2   2   2
   2   2   2   2   2   2
      11  -0.117851130  -0.589255651   0.589255651      33
     No degeneracy
      12  -0.000000000  -0.471404521   0.471404521      33
     No degeneracy
      13  -0.707106781   0.000000000   0.000000000      24
        1   1   1   1   1   1   1   2   2   2   2   1   1   1   1   1   1   1
   1   2   2   2   2   2
      14  -0.235702260  -0.471404521   0.707106781      33
     No degeneracy
      15  -0.117851130  -0.353553391   0.589255651      33
     No degeneracy
      16  -0.707106781   0.235702260   0.000000000      33
     No degeneracy

     Saving dvscf to file. Distribute only q points, not irreducible representations.

     Calculation of q =    0.2357023   0.2357023  -0.2357023
 
     Parallelization info
     --------------------
     sticks:   dense  smooth     PW     G-vecs:    dense   smooth      PW
     Min         226      76     24                 7730     1493     273
     Max         227      77     25                 7733     1495     275
     Sum        2713     913    295                92769    17933    3287
 
     Using Slab Decomposition
 

     Title: 
     Electron-phonon coefficients for Ce1H10                                    


     bravais-lattice index     =            0
     lattice parameter (alat)  =       6.3833  a.u.
     unit-cell volume          =     183.9165 (a.u.)^3
     number of atoms/cell      =           11
     number of atomic types    =            2
     number of electrons       =        22.00
     number of Kohn-Sham states=           15
     kinetic-energy cutoff     =      80.0000  Ry
     charge density cutoff     =     960.0000  Ry
     Exchange-correlation= PBE
                           (   1   4   3   4   0   0   0)

     celldm(1)=   6.383300  celldm(2)=   0.000000  celldm(3)=   0.000000
     celldm(4)=   0.000000  celldm(5)=   0.000000  celldm(6)=   0.000000

     crystal axes: (cart. coord. in units of alat)
               a(1) = (   0.000000   0.707107   0.707107 )  
               a(2) = (   0.707107   0.000000   0.707107 )  
               a(3) = (   0.707107   0.707107   0.000000 )  

     reciprocal axes: (cart. coord. in units 2 pi/alat)
               b(1) = ( -0.707107  0.707107  0.707107 )  
               b(2) = (  0.707107 -0.707107  0.707107 )  
               b(3) = (  0.707107  0.707107 -0.707107 )  


     PseudoPot. # 1 for Ce read from file:
     /work/home/mayuan/workplace/1.typical_hydride/003.MH10/2.CeH10/250/Tc-666-paw/pp/Ce.paw.z_12.atompaw.wentzcovitch.v1.2.upf
     MD5 check sum: 2241420ff980c77e0c917a2dc8a7e08e
     Pseudo is Projector augmented-wave + core cor, Zval = 12.0
     Generated using ATOMPAW code
     Shape of augmentation charge: BESSEL
     Using radial grid of 1102 points,  8 beta functions with: 
                l(1) =   0
                l(2) =   0
                l(3) =   1
                l(4) =   1
                l(5) =   2
                l(6) =   2
                l(7) =   3
                l(8) =   3
     Q(r) pseudized with 0 coefficients 


     PseudoPot. # 2 for H  read from file:
     /work/home/mayuan/workplace/1.typical_hydride/003.MH10/2.CeH10/250/Tc-666-paw/pp/H.pbe-kjpaw_psl.1.0.0.UPF
     MD5 check sum: 3bb27c602ede137025941d095c9090b7
     Pseudo is Projector augmented-wave, Zval =  1.0
     Generated using 'atomic' code by A. Dal Corso  v.7.1
     Shape of augmentation charge: PSQ
     Using radial grid of  929 points,  2 beta functions with: 
                l(1) =   0
                l(2) =   0
     Q(r) pseudized with 0 coefficients 


     atomic species   valence    mass     pseudopotential
     Ce               12.00   140.11600     Ce( 1.00)
     H                 1.00     1.00794     H ( 1.00)

     48 Sym. Ops., with inversion, found



   Cartesian axes

     site n.     atom                  positions (alat units)
         1        Ce     tau(   1) = (   0.7071068   0.7071068   0.7071068  )
         2        H      tau(   2) = (   0.3535534   0.3535534   0.3535534  )
         3        H      tau(   3) = (   1.0606602   1.0606602   1.0606602  )
         4        H      tau(   4) = (   1.2411448   1.2411448   1.2411448  )
         5        H      tau(   5) = (   0.1730688   0.1730688   0.1730688  )
         6        H      tau(   6) = (   0.8801756   0.8801756   1.2411448  )
         7        H      tau(   7) = (   0.5340380   0.5340380   0.1730688  )
         8        H      tau(   8) = (   0.8801756   1.2411448   0.8801756  )
         9        H      tau(   9) = (   0.5340380   0.1730688   0.5340380  )
        10        H      tau(  10) = (   1.2411448   0.8801756   0.8801756  )
        11        H      tau(  11) = (   0.1730688   0.5340380   0.5340380  )

     number of k points=   728  Gaussian smearing, width (Ry)=  0.0200

     Number of k-points >= 100: set verbosity='high' to print them.

     Dense  grid:    92769 G-vectors     FFT dimensions: (  64,  64,  64)

     Smooth grid:    17933 G-vectors     FFT dimensions: (  40,  40,  40)

     Estimated max dynamical RAM per process >      31.92 MB

     Estimated total dynamical RAM >       1.50 GB

     The potential is recalculated from file :
     ./tmp/_ph0/Ce1H10.q_3/Ce1H10.save/charge-density

     Starting wfcs are   42 atomic wfcs
     Checking if some PAW data can be deallocated... 

     Band Structure Calculation
     Davidson diagonalization with overlap

     ethr =  4.55E-11,  avg # of iterations = 19.1

     total cpu time spent up to now is       14.9 secs

     End of band structure calculation

     Number of k-points >= 100: set verbosity='high' to print the bands.

     the Fermi energy is    22.0987 ev

     Writing config to output data dir ./tmp/_ph0/Ce1H10.q_3/Ce1H10.save/ :
     XML data file

Possibly too few bands at point    1   0.00000   0.00000   0.00000

Possibly too few bands at point  166   0.00000   0.00000   0.00000

     Electron-phonon coefficients for Ce1H10                                    

     bravais-lattice index     =            0
     lattice parameter (alat)  =       6.3833  a.u.
     unit-cell volume          =     183.9165 (a.u.)^3
     number of atoms/cell      =           11
     number of atomic types    =            2
     kinetic-energy cut-off    =      80.0000  Ry
     charge density cut-off    =     960.0000  Ry
     convergence threshold     =      1.0E-14
     beta                      =       0.3000
     number of iterations used =            4
     Exchange-correlation= PBE
                           (   1   4   3   4   0   0   0)


     celldm(1)=    6.38330  celldm(2)=    0.00000  celldm(3)=    0.00000
     celldm(4)=    0.00000  celldm(5)=    0.00000  celldm(6)=    0.00000

     crystal axes: (cart. coord. in units of alat)
               a(1) = (  0.0000  0.7071  0.7071 )  
               a(2) = (  0.7071  0.0000  0.7071 )  
               a(3) = (  0.7071  0.7071  0.0000 )  

     reciprocal axes: (cart. coord. in units 2 pi/alat)
               b(1) = ( -0.7071  0.7071  0.7071 )  
               b(2) = (  0.7071 -0.7071  0.7071 )  
               b(3) = (  0.7071  0.7071 -0.7071 )  


     Atoms inside the unit cell: 

     Cartesian axes

     site n.  atom      mass           positions (alat units)
        1  Ce    140.1160   tau(    1) = (    0.70711    0.70711    0.70711  )
        2  H       1.0079   tau(    2) = (    0.35355    0.35355    0.35355  )
        3  H       1.0079   tau(    3) = (    1.06066    1.06066    1.06066  )
        4  H       1.0079   tau(    4) = (    1.24114    1.24114    1.24114  )
        5  H       1.0079   tau(    5) = (    0.17307    0.17307    0.17307  )
        6  H       1.0079   tau(    6) = (    0.88018    0.88018    1.24114  )
        7  H       1.0079   tau(    7) = (    0.53404    0.53404    0.17307  )
        8  H       1.0079   tau(    8) = (    0.88018    1.24114    0.88018  )
        9  H       1.0079   tau(    9) = (    0.53404    0.17307    0.53404  )
       10  H       1.0079   tau(   10) = (    1.24114    0.88018    0.88018  )
       11  H       1.0079   tau(   11) = (    0.17307    0.53404    0.53404  )

     Computing dynamical matrix for 
                    q = (   0.2357023   0.2357023  -0.2357023 )
 
      6 Sym.Ops. (no q -> -q+G )


     G cutoff =  990.8365  (   7731 G-vectors)     FFT grid: ( 64, 64, 64)
     G cutoff =  330.2788  (   1495 G-vectors)  smooth grid: ( 40, 40, 40)

     number of k points=   728  Gaussian smearing, width (Ry)=  0.0200

     PseudoPot. # 1 for Ce read from file:
     /work/home/mayuan/workplace/1.typical_hydride/003.MH10/2.CeH10/250/Tc-666-paw/pp/Ce.paw.z_12.atompaw.wentzcovitch.v1.2.upf
     MD5 check sum: 2241420ff980c77e0c917a2dc8a7e08e
     Pseudo is Projector augmented-wave + core cor, Zval = 12.0
     Generated using ATOMPAW code
     Shape of augmentation charge: BESSEL
     Using radial grid of 1102 points,  8 beta functions with: 
                l(1) =   0
                l(2) =   0
                l(3) =   1
                l(4) =   1
                l(5) =   2
                l(6) =   2
                l(7) =   3
                l(8) =   3
     Q(r) pseudized with 0 coefficients 


     PseudoPot. # 2 for H  read from file:
     /work/home/mayuan/workplace/1.typical_hydride/003.MH10/2.CeH10/250/Tc-666-paw/pp/H.pbe-kjpaw_psl.1.0.0.UPF
     MD5 check sum: 3bb27c602ede137025941d095c9090b7
     Pseudo is Projector augmented-wave, Zval =  1.0
     Generated using 'atomic' code by A. Dal Corso  v.7.1
     Shape of augmentation charge: PSQ
     Using radial grid of  929 points,  2 beta functions with: 
                l(1) =   0
                l(2) =   0
     Q(r) pseudized with 0 coefficients 


     Mode symmetry, C_3v (3m)   point group:


     Atomic displacements:
     There are   22 irreducible representations

     Representation     1      1 modes -  To be done

     Representation     2      1 modes -  To be done

     Representation     3      1 modes -  To be done

     Representation     4      1 modes -  To be done

     Representation     5      1 modes -  To be done

     Representation     6      1 modes -  To be done

     Representation     7      1 modes -  To be done

     Representation     8      1 modes -  To be done

     Representation     9      1 modes -  To be done

     Representation    10      1 modes -  To be done

     Representation    11      1 modes -  To be done

     Representation    12      2 modes -  To be done

     Representation    13      2 modes -  To be done

     Representation    14      2 modes -  To be done

     Representation    15      2 modes -  To be done

     Representation    16      2 modes -  To be done

     Representation    17      2 modes -  To be done

     Representation    18      2 modes -  To be done

     Representation    19      2 modes -  To be done

     Representation    20      2 modes -  To be done

     Representation    21      2 modes -  To be done

     Representation    22      2 modes -  To be done


     Message from routine init_vloc:
     Interpolation table for Vloc re-allocated

     Alpha used in Ewald sum =   2.8000
     PHONON       :     27.72s CPU     38.69s WALL



     Representation #   1 mode #   1

     Self-consistent Calculation

      iter #   1 total cpu time :    51.1 secs   av.it.:   8.2
      thresh= 1.000E-02 alpha_mix =  0.300 |ddv_scf|^2 =  4.427E-05

      iter #   2 total cpu time :    63.6 secs   av.it.:  15.0
      thresh= 6.654E-04 alpha_mix =  0.300 |ddv_scf|^2 =  6.176E-04

      iter #   3 total cpu time :    78.5 secs   av.it.:  12.7
      thresh= 2.485E-03 alpha_mix =  0.300 |ddv_scf|^2 =  4.333E-07

      iter #   4 total cpu time :    91.8 secs   av.it.:  14.2
      thresh= 6.583E-05 alpha_mix =  0.300 |ddv_scf|^2 =  6.237E-09

      iter #   5 total cpu time :   106.1 secs   av.it.:  15.3
      thresh= 7.897E-06 alpha_mix =  0.300 |ddv_scf|^2 =  1.522E-09

      iter #   6 total cpu time :   121.8 secs   av.it.:  15.6
      thresh= 3.901E-06 alpha_mix =  0.300 |ddv_scf|^2 =  5.455E-11

      iter #   7 total cpu time :   137.9 secs   av.it.:  16.5
      thresh= 7.386E-07 alpha_mix =  0.300 |ddv_scf|^2 =  3.656E-11

      iter #   8 total cpu time :   153.5 secs   av.it.:  14.2
      thresh= 6.047E-07 alpha_mix =  0.300 |ddv_scf|^2 =  2.290E-11

      iter #   9 total cpu time :   167.0 secs   av.it.:  14.8
      thresh= 4.785E-07 alpha_mix =  0.300 |ddv_scf|^2 =  2.372E-12

      iter #  10 total cpu time :   180.7 secs   av.it.:  16.2
      thresh= 1.540E-07 alpha_mix =  0.300 |ddv_scf|^2 =  9.811E-14

      iter #  11 total cpu time :   192.2 secs   av.it.:  15.6
      thresh= 3.132E-08 alpha_mix =  0.300 |ddv_scf|^2 =  2.140E-14

      iter #  12 total cpu time :   206.7 secs   av.it.:  16.5
      thresh= 1.463E-08 alpha_mix =  0.300 |ddv_scf|^2 =  2.837E-14

      iter #  13 total cpu time :   222.2 secs   av.it.:  14.4
      thresh= 1.684E-08 alpha_mix =  0.300 |ddv_scf|^2 =  4.146E-15

     End of self-consistent calculation

     Convergence has been achieved 


     Representation #   2 mode #   2

     Self-consistent Calculation

      iter #   1 total cpu time :   240.6 secs   av.it.:   7.7
      thresh= 1.000E-02 alpha_mix =  0.300 |ddv_scf|^2 =  1.134E-05

      iter #   2 total cpu time :   252.5 secs   av.it.:  14.9
      thresh= 3.368E-04 alpha_mix =  0.300 |ddv_scf|^2 =  1.316E-04

      iter #   3 total cpu time :   266.7 secs   av.it.:  12.8
      thresh= 1.147E-03 alpha_mix =  0.300 |ddv_scf|^2 =  9.505E-07

      iter #   4 total cpu time :   281.8 secs   av.it.:  13.8
      thresh= 9.749E-05 alpha_mix =  0.300 |ddv_scf|^2 =  2.027E-08

      iter #   5 total cpu time :   294.8 secs   av.it.:  14.5
      thresh= 1.424E-05 alpha_mix =  0.300 |ddv_scf|^2 =  3.218E-10

      iter #   6 total cpu time :   306.8 secs   av.it.:  16.5
      thresh= 1.794E-06 alpha_mix =  0.300 |ddv_scf|^2 =  3.372E-11

      iter #   7 total cpu time :   320.5 secs   av.it.:  16.0
      thresh= 5.807E-07 alpha_mix =  0.300 |ddv_scf|^2 =  4.687E-12

      iter #   8 total cpu time :   334.1 secs   av.it.:  16.1
      thresh= 2.165E-07 alpha_mix =  0.300 |ddv_scf|^2 =  3.751E-11

      iter #   9 total cpu time :   347.0 secs   av.it.:  13.9
      thresh= 6.124E-07 alpha_mix =  0.300 |ddv_scf|^2 =  1.351E-12

      iter #  10 total cpu time :   362.9 secs   av.it.:  15.1
      thresh= 1.162E-07 alpha_mix =  0.300 |ddv_scf|^2 =  1.281E-13

      iter #  11 total cpu time :   377.0 secs   av.it.:  16.0
      thresh= 3.580E-08 alpha_mix =  0.300 |ddv_scf|^2 =  1.095E-13

      iter #  12 total cpu time :   387.6 secs   av.it.:  14.6
      thresh= 3.309E-08 alpha_mix =  0.300 |ddv_scf|^2 =  3.363E-15

     End of self-consistent calculation

     Convergence has been achieved 


     Representation #   3 mode #   3

     Self-consistent Calculation

      iter #   1 total cpu time :   406.2 secs   av.it.:  11.7
      thresh= 1.000E-02 alpha_mix =  0.300 |ddv_scf|^2 =  1.316E-03

      iter #   2 total cpu time :   418.3 secs   av.it.:  14.9
      thresh= 3.628E-03 alpha_mix =  0.300 |ddv_scf|^2 =  1.462E-02

      iter #   3 total cpu time :   429.9 secs   av.it.:  13.1
      thresh= 1.000E-02 alpha_mix =  0.300 |ddv_scf|^2 =  1.436E-04

      iter #   4 total cpu time :   442.4 secs   av.it.:  13.6
      thresh= 1.198E-03 alpha_mix =  0.300 |ddv_scf|^2 =  3.690E-06

      iter #   5 total cpu time :   458.4 secs   av.it.:  13.3
      thresh= 1.921E-04 alpha_mix =  0.300 |ddv_scf|^2 =  2.922E-08

      iter #   6 total cpu time :   470.7 secs   av.it.:  15.2
      thresh= 1.710E-05 alpha_mix =  0.300 |ddv_scf|^2 =  5.185E-09

      iter #   7 total cpu time :   483.8 secs   av.it.:  14.5
      thresh= 7.201E-06 alpha_mix =  0.300 |ddv_scf|^2 =  1.038E-10

      iter #   8 total cpu time :   496.8 secs   av.it.:  16.3
      thresh= 1.019E-06 alpha_mix =  0.300 |ddv_scf|^2 =  2.313E-10

      iter #   9 total cpu time :   509.6 secs   av.it.:  14.1
      thresh= 1.521E-06 alpha_mix =  0.300 |ddv_scf|^2 =  6.783E-11

      iter #  10 total cpu time :   525.9 secs   av.it.:  15.2
      thresh= 8.236E-07 alpha_mix =  0.300 |ddv_scf|^2 =  3.132E-12

      iter #  11 total cpu time :   540.4 secs   av.it.:  14.5
      thresh= 1.770E-07 alpha_mix =  0.300 |ddv_scf|^2 =  2.881E-13

      iter #  12 total cpu time :   553.5 secs   av.it.:  16.0
      thresh= 5.367E-08 alpha_mix =  0.300 |ddv_scf|^2 =  1.043E-14

      iter #  13 total cpu time :   566.5 secs   av.it.:  15.6
      thresh= 1.021E-08 alpha_mix =  0.300 |ddv_scf|^2 =  2.615E-15

     End of self-consistent calculation

     Convergence has been achieved 


     Representation #   4 mode #   4

     Self-consistent Calculation

      iter #   1 total cpu time :   584.3 secs   av.it.:   7.7
      thresh= 1.000E-02 alpha_mix =  0.300 |ddv_scf|^2 =  1.134E-05

      iter #   2 total cpu time :   596.3 secs   av.it.:  14.9
      thresh= 3.368E-04 alpha_mix =  0.300 |ddv_scf|^2 =  1.316E-04

      iter #   3 total cpu time :   608.6 secs   av.it.:  12.8
      thresh= 1.147E-03 alpha_mix =  0.300 |ddv_scf|^2 =  9.505E-07

      iter #   4 total cpu time :   620.5 secs   av.it.:  13.8
      thresh= 9.749E-05 alpha_mix =  0.300 |ddv_scf|^2 =  2.027E-08

      iter #   5 total cpu time :   632.9 secs   av.it.:  14.5
      thresh= 1.424E-05 alpha_mix =  0.300 |ddv_scf|^2 =  3.218E-10

      iter #   6 total cpu time :   646.6 secs   av.it.:  16.6
      thresh= 1.794E-06 alpha_mix =  0.300 |ddv_scf|^2 =  3.344E-11

      iter #   7 total cpu time :   659.9 secs   av.it.:  16.0
      thresh= 5.782E-07 alpha_mix =  0.300 |ddv_scf|^2 =  3.609E-12

      iter #   8 total cpu time :   673.3 secs   av.it.:  16.6
      thresh= 1.900E-07 alpha_mix =  0.300 |ddv_scf|^2 =  8.556E-12

      iter #   9 total cpu time :   685.8 secs   av.it.:  13.5
      thresh= 2.925E-07 alpha_mix =  0.300 |ddv_scf|^2 =  2.328E-12

      iter #  10 total cpu time :   698.1 secs   av.it.:  14.5
      thresh= 1.526E-07 alpha_mix =  0.300 |ddv_scf|^2 =  1.512E-13

      iter #  11 total cpu time :   711.0 secs   av.it.:  15.7
      thresh= 3.888E-08 alpha_mix =  0.300 |ddv_scf|^2 =  7.446E-14

      iter #  12 total cpu time :   725.0 secs   av.it.:  15.4
      thresh= 2.729E-08 alpha_mix =  0.300 |ddv_scf|^2 =  1.001E-14

      iter #  13 total cpu time :   736.8 secs   av.it.:  15.7
      thresh= 1.000E-08 alpha_mix =  0.300 |ddv_scf|^2 =  6.160E-15

     End of self-consistent calculation

     Convergence has been achieved 


     Representation #   5 mode #   5

     Self-consistent Calculation

      iter #   1 total cpu time :   757.5 secs   av.it.:   8.0
      thresh= 1.000E-02 alpha_mix =  0.300 |ddv_scf|^2 =  2.707E-05

      iter #   2 total cpu time :   769.1 secs   av.it.:  14.9
      thresh= 5.203E-04 alpha_mix =  0.300 |ddv_scf|^2 =  3.790E-04

      iter #   3 total cpu time :   784.7 secs   av.it.:  12.7
      thresh= 1.947E-03 alpha_mix =  0.300 |ddv_scf|^2 =  2.361E-07

      iter #   4 total cpu time :   799.0 secs   av.it.:  14.4
      thresh= 4.859E-05 alpha_mix =  0.300 |ddv_scf|^2 =  3.208E-09

      iter #   5 total cpu time :   813.5 secs   av.it.:  15.9
      thresh= 5.664E-06 alpha_mix =  0.300 |ddv_scf|^2 =  1.064E-09

      iter #   6 total cpu time :   828.6 secs   av.it.:  15.9
      thresh= 3.263E-06 alpha_mix =  0.300 |ddv_scf|^2 =  5.134E-11

      iter #   7 total cpu time :   844.4 secs   av.it.:  16.3
      thresh= 7.165E-07 alpha_mix =  0.300 |ddv_scf|^2 =  1.524E-11

      iter #   8 total cpu time :   858.3 secs   av.it.:  15.6
      thresh= 3.904E-07 alpha_mix =  0.300 |ddv_scf|^2 =  8.521E-11

      iter #   9 total cpu time :   871.1 secs   av.it.:  14.1
      thresh= 9.231E-07 alpha_mix =  0.300 |ddv_scf|^2 =  3.232E-12

      iter #  10 total cpu time :   884.7 secs   av.it.:  15.9
      thresh= 1.798E-07 alpha_mix =  0.300 |ddv_scf|^2 =  2.289E-12

      iter #  11 total cpu time :   898.1 secs   av.it.:  14.6
      thresh= 1.513E-07 alpha_mix =  0.300 |ddv_scf|^2 =  2.164E-13

      iter #  12 total cpu time :   913.7 secs   av.it.:  15.4
      thresh= 4.652E-08 alpha_mix =  0.300 |ddv_scf|^2 =  1.563E-13

      iter #  13 total cpu time :   928.7 secs   av.it.:  14.7
      thresh= 3.953E-08 alpha_mix =  0.300 |ddv_scf|^2 =  8.768E-15

     End of self-consistent calculation

     Convergence has been achieved 


     Representation #   6 mode #   6

     Self-consistent Calculation

      iter #   1 total cpu time :   949.4 secs   av.it.:   7.7
      thresh= 1.000E-02 alpha_mix =  0.300 |ddv_scf|^2 =  1.266E-05

      iter #   2 total cpu time :   961.7 secs   av.it.:  15.0
      thresh= 3.558E-04 alpha_mix =  0.300 |ddv_scf|^2 =  1.671E-04

      iter #   3 total cpu time :   974.2 secs   av.it.:  12.8
      thresh= 1.293E-03 alpha_mix =  0.300 |ddv_scf|^2 =  3.220E-07

      iter #   4 total cpu time :   988.8 secs   av.it.:  14.1
      thresh= 5.675E-05 alpha_mix =  0.300 |ddv_scf|^2 =  1.934E-09

      iter #   5 total cpu time :  1003.4 secs   av.it.:  15.9
      thresh= 4.398E-06 alpha_mix =  0.300 |ddv_scf|^2 =  6.013E-10

      iter #   6 total cpu time :  1018.5 secs   av.it.:  16.1
      thresh= 2.452E-06 alpha_mix =  0.300 |ddv_scf|^2 =  2.662E-11

      iter #   7 total cpu time :  1033.3 secs   av.it.:  16.3
      thresh= 5.159E-07 alpha_mix =  0.300 |ddv_scf|^2 =  1.087E-11

      iter #   8 total cpu time :  1049.1 secs   av.it.:  14.9
      thresh= 3.296E-07 alpha_mix =  0.300 |ddv_scf|^2 =  2.740E-11

      iter #   9 total cpu time :  1062.3 secs   av.it.:  14.5
      thresh= 5.234E-07 alpha_mix =  0.300 |ddv_scf|^2 =  1.439E-12

      iter #  10 total cpu time :  1077.0 secs   av.it.:  15.7
      thresh= 1.199E-07 alpha_mix =  0.300 |ddv_scf|^2 =  1.208E-13

      iter #  11 total cpu time :  1092.8 secs   av.it.:  15.3
      thresh= 3.475E-08 alpha_mix =  0.300 |ddv_scf|^2 =  1.130E-13

      iter #  12 total cpu time :  1106.6 secs   av.it.:  15.6
      thresh= 3.361E-08 alpha_mix =  0.300 |ddv_scf|^2 =  3.346E-14

      iter #  13 total cpu time :  1121.5 secs   av.it.:  15.0
      thresh= 1.829E-08 alpha_mix =  0.300 |ddv_scf|^2 =  2.929E-15

     End of self-consistent calculation

     Convergence has been achieved 


     Representation #   7 mode #   7

     Self-consistent Calculation

      iter #   1 total cpu time :  1140.4 secs   av.it.:   7.6
      thresh= 1.000E-02 alpha_mix =  0.300 |ddv_scf|^2 =  2.459E-06

      iter #   2 total cpu time :  1153.0 secs   av.it.:  15.1
      thresh= 1.568E-04 alpha_mix =  0.300 |ddv_scf|^2 =  2.897E-05

      iter #   3 total cpu time :  1163.8 secs   av.it.:  12.8
      thresh= 5.383E-04 alpha_mix =  0.300 |ddv_scf|^2 =  1.845E-07

      iter #   4 total cpu time :  1176.8 secs   av.it.:  14.7
      thresh= 4.295E-05 alpha_mix =  0.300 |ddv_scf|^2 =  2.722E-08

      iter #   5 total cpu time :  1192.2 secs   av.it.:  14.8
      thresh= 1.650E-05 alpha_mix =  0.300 |ddv_scf|^2 =  1.038E-09

      iter #   6 total cpu time :  1205.7 secs   av.it.:  15.4
      thresh= 3.222E-06 alpha_mix =  0.300 |ddv_scf|^2 =  3.329E-11

      iter #   7 total cpu time :  1219.9 secs   av.it.:  16.4
      thresh= 5.770E-07 alpha_mix =  0.300 |ddv_scf|^2 =  3.098E-11

      iter #   8 total cpu time :  1233.2 secs   av.it.:  14.9
      thresh= 5.566E-07 alpha_mix =  0.300 |ddv_scf|^2 =  1.061E-10

      iter #   9 total cpu time :  1248.1 secs   av.it.:  14.0
      thresh= 1.030E-06 alpha_mix =  0.300 |ddv_scf|^2 =  2.980E-12

      iter #  10 total cpu time :  1264.2 secs   av.it.:  15.6
      thresh= 1.726E-07 alpha_mix =  0.300 |ddv_scf|^2 =  8.794E-13

      iter #  11 total cpu time :  1276.3 secs   av.it.:  14.9
      thresh= 9.378E-08 alpha_mix =  0.300 |ddv_scf|^2 =  1.111E-13

      iter #  12 total cpu time :  1292.0 secs   av.it.:  15.4
      thresh= 3.333E-08 alpha_mix =  0.300 |ddv_scf|^2 =  1.179E-14

      iter #  13 total cpu time :  1306.8 secs   av.it.:  15.5
      thresh= 1.086E-08 alpha_mix =  0.300 |ddv_scf|^2 =  1.507E-14

      iter #  14 total cpu time :  1319.9 secs   av.it.:  14.7
      thresh= 1.228E-08 alpha_mix =  0.300 |ddv_scf|^2 =  1.030E-15

     End of self-consistent calculation

     Convergence has been achieved 


     Representation #   8 mode #   8

     Self-consistent Calculation

      iter #   1 total cpu time :  1339.1 secs   av.it.:   7.7
      thresh= 1.000E-02 alpha_mix =  0.300 |ddv_scf|^2 =  1.266E-05

      iter #   2 total cpu time :  1351.6 secs   av.it.:  15.0
      thresh= 3.558E-04 alpha_mix =  0.300 |ddv_scf|^2 =  1.671E-04

      iter #   3 total cpu time :  1365.2 secs   av.it.:  12.8
      thresh= 1.293E-03 alpha_mix =  0.300 |ddv_scf|^2 =  3.220E-07

      iter #   4 total cpu time :  1382.6 secs   av.it.:  14.1
      thresh= 5.675E-05 alpha_mix =  0.300 |ddv_scf|^2 =  1.934E-09

      iter #   5 total cpu time :  1397.5 secs   av.it.:  15.9
      thresh= 4.398E-06 alpha_mix =  0.300 |ddv_scf|^2 =  6.013E-10

      iter #   6 total cpu time :  1411.9 secs   av.it.:  16.1
      thresh= 2.452E-06 alpha_mix =  0.300 |ddv_scf|^2 =  2.648E-11

      iter #   7 total cpu time :  1425.3 secs   av.it.:  16.3
      thresh= 5.146E-07 alpha_mix =  0.300 |ddv_scf|^2 =  7.219E-12

      iter #   8 total cpu time :  1441.3 secs   av.it.:  15.6
      thresh= 2.687E-07 alpha_mix =  0.300 |ddv_scf|^2 =  3.749E-11

      iter #   9 total cpu time :  1454.0 secs   av.it.:  14.0
      thresh= 6.123E-07 alpha_mix =  0.300 |ddv_scf|^2 =  1.189E-12

      iter #  10 total cpu time :  1469.0 secs   av.it.:  15.8
      thresh= 1.091E-07 alpha_mix =  0.300 |ddv_scf|^2 =  1.426E-13

      iter #  11 total cpu time :  1481.4 secs   av.it.:  15.2
      thresh= 3.776E-08 alpha_mix =  0.300 |ddv_scf|^2 =  9.031E-14

      iter #  12 total cpu time :  1495.3 secs   av.it.:  15.8
      thresh= 3.005E-08 alpha_mix =  0.300 |ddv_scf|^2 =  3.303E-14

      iter #  13 total cpu time :  1508.0 secs   av.it.:  15.0
      thresh= 1.817E-08 alpha_mix =  0.300 |ddv_scf|^2 =  2.671E-15

     End of self-consistent calculation

     Convergence has been achieved 


     Representation #   9 mode #   9

     Self-consistent Calculation

      iter #   1 total cpu time :  1527.7 secs   av.it.:   8.0
      thresh= 1.000E-02 alpha_mix =  0.300 |ddv_scf|^2 =  1.966E-05

      iter #   2 total cpu time :  1538.7 secs   av.it.:  15.0
      thresh= 4.434E-04 alpha_mix =  0.300 |ddv_scf|^2 =  2.676E-04

      iter #   3 total cpu time :  1552.1 secs   av.it.:  12.8
      thresh= 1.636E-03 alpha_mix =  0.300 |ddv_scf|^2 =  3.282E-07

      iter #   4 total cpu time :  1564.7 secs   av.it.:  14.4
      thresh= 5.729E-05 alpha_mix =  0.300 |ddv_scf|^2 =  4.360E-09

      iter #   5 total cpu time :  1580.4 secs   av.it.:  15.8
      thresh= 6.603E-06 alpha_mix =  0.300 |ddv_scf|^2 =  4.006E-10

      iter #   6 total cpu time :  1593.2 secs   av.it.:  16.4
      thresh= 2.001E-06 alpha_mix =  0.300 |ddv_scf|^2 =  5.883E-11

      iter #   7 total cpu time :  1607.2 secs   av.it.:  16.1
      thresh= 7.670E-07 alpha_mix =  0.300 |ddv_scf|^2 =  2.271E-11

      iter #   8 total cpu time :  1620.1 secs   av.it.:  15.3
      thresh= 4.766E-07 alpha_mix =  0.300 |ddv_scf|^2 =  1.199E-10

      iter #   9 total cpu time :  1633.6 secs   av.it.:  13.7
      thresh= 1.095E-06 alpha_mix =  0.300 |ddv_scf|^2 =  2.646E-11

      iter #  10 total cpu time :  1648.2 secs   av.it.:  14.8
      thresh= 5.144E-07 alpha_mix =  0.300 |ddv_scf|^2 =  8.051E-13

      iter #  11 total cpu time :  1663.3 secs   av.it.:  15.6
      thresh= 8.973E-08 alpha_mix =  0.300 |ddv_scf|^2 =  4.747E-13

      iter #  12 total cpu time :  1676.0 secs   av.it.:  15.2
      thresh= 6.890E-08 alpha_mix =  0.300 |ddv_scf|^2 =  2.259E-13

      iter #  13 total cpu time :  1688.7 secs   av.it.:  14.2
      thresh= 4.753E-08 alpha_mix =  0.300 |ddv_scf|^2 =  2.096E-14

      iter #  14 total cpu time :  1700.4 secs   av.it.:  15.6
      thresh= 1.448E-08 alpha_mix =  0.300 |ddv_scf|^2 =  8.870E-16

     End of self-consistent calculation

     Convergence has been achieved 


     Representation #  10 mode #  10

     Self-consistent Calculation

      iter #   1 total cpu time :  1720.4 secs   av.it.:   6.4
      thresh= 1.000E-02 alpha_mix =  0.300 |ddv_scf|^2 =  1.602E-09

      iter #   2 total cpu time :  1733.2 secs   av.it.:  15.2
      thresh= 4.003E-06 alpha_mix =  0.300 |ddv_scf|^2 =  7.312E-10

      iter #   3 total cpu time :  1747.9 secs   av.it.:  15.9
      thresh= 2.704E-06 alpha_mix =  0.300 |ddv_scf|^2 =  3.466E-12

      iter #   4 total cpu time :  1762.3 secs   av.it.:  15.6
      thresh= 1.862E-07 alpha_mix =  0.300 |ddv_scf|^2 =  1.518E-13

      iter #   5 total cpu time :  1774.4 secs   av.it.:  15.7
      thresh= 3.896E-08 alpha_mix =  0.300 |ddv_scf|^2 =  5.804E-15

     End of self-consistent calculation

     Convergence has been achieved 


     Representation #  11 mode #  11

     Self-consistent Calculation

      iter #   1 total cpu time :  1794.0 secs   av.it.:   6.4
      thresh= 1.000E-02 alpha_mix =  0.300 |ddv_scf|^2 =  1.602E-09

      iter #   2 total cpu time :  1806.3 secs   av.it.:  15.2
      thresh= 4.003E-06 alpha_mix =  0.300 |ddv_scf|^2 =  7.312E-10

      iter #   3 total cpu time :  1820.0 secs   av.it.:  15.9
      thresh= 2.704E-06 alpha_mix =  0.300 |ddv_scf|^2 =  3.466E-12

      iter #   4 total cpu time :  1831.5 secs   av.it.:  15.6
      thresh= 1.862E-07 alpha_mix =  0.300 |ddv_scf|^2 =  1.518E-13

      iter #   5 total cpu time :  1844.2 secs   av.it.:  15.7
      thresh= 3.896E-08 alpha_mix =  0.300 |ddv_scf|^2 =  5.804E-15

     End of self-consistent calculation

     Convergence has been achieved 


     Representation #  12 modes #  12  13

     Self-consistent Calculation

      iter #   1 total cpu time :  1872.0 secs   av.it.:   7.0
      thresh= 1.000E-02 alpha_mix =  0.300 |ddv_scf|^2 =  1.397E-09

      iter #   2 total cpu time :  1892.1 secs   av.it.:  17.5
      thresh= 3.738E-06 alpha_mix =  0.300 |ddv_scf|^2 =  3.980E-10

      iter #   3 total cpu time :  1914.6 secs   av.it.:  18.1
      thresh= 1.995E-06 alpha_mix =  0.300 |ddv_scf|^2 =  2.510E-11

      iter #   4 total cpu time :  1934.8 secs   av.it.:  18.2
      thresh= 5.010E-07 alpha_mix =  0.300 |ddv_scf|^2 =  1.324E-12

      iter #   5 total cpu time :  1956.3 secs   av.it.:  18.0
      thresh= 1.151E-07 alpha_mix =  0.300 |ddv_scf|^2 =  1.584E-13

      iter #   6 total cpu time :  1977.9 secs   av.it.:  18.1
      thresh= 3.980E-08 alpha_mix =  0.300 |ddv_scf|^2 =  1.781E-14

      iter #   7 total cpu time :  1996.6 secs   av.it.:  18.4
      thresh= 1.335E-08 alpha_mix =  0.300 |ddv_scf|^2 =  3.446E-16

     End of self-consistent calculation

     Convergence has been achieved 


     Representation #  13 modes #  14  15

     Self-consistent Calculation

      iter #   1 total cpu time :  2028.8 secs   av.it.:   7.6
      thresh= 1.000E-02 alpha_mix =  0.300 |ddv_scf|^2 =  1.411E-08

      iter #   2 total cpu time :  2049.4 secs   av.it.:  17.2
      thresh= 1.188E-05 alpha_mix =  0.300 |ddv_scf|^2 =  2.429E-09

      iter #   3 total cpu time :  2070.8 secs   av.it.:  17.8
      thresh= 4.929E-06 alpha_mix =  0.300 |ddv_scf|^2 =  7.277E-11

      iter #   4 total cpu time :  2091.8 secs   av.it.:  18.4
      thresh= 8.531E-07 alpha_mix =  0.300 |ddv_scf|^2 =  3.114E-12

      iter #   5 total cpu time :  2111.6 secs   av.it.:  18.2
      thresh= 1.765E-07 alpha_mix =  0.300 |ddv_scf|^2 =  2.201E-13

      iter #   6 total cpu time :  2132.6 secs   av.it.:  17.7
      thresh= 4.692E-08 alpha_mix =  0.300 |ddv_scf|^2 =  4.827E-14

      iter #   7 total cpu time :  2152.1 secs   av.it.:  18.1
      thresh= 2.197E-08 alpha_mix =  0.300 |ddv_scf|^2 =  1.858E-15

     End of self-consistent calculation

     Convergence has been achieved 


     Representation #  14 modes #  16  17

     Self-consistent Calculation

      iter #   1 total cpu time :  2188.5 secs   av.it.:   7.3
      thresh= 1.000E-02 alpha_mix =  0.300 |ddv_scf|^2 =  8.723E-09

      iter #   2 total cpu time :  2207.1 secs   av.it.:  17.2
      thresh= 9.340E-06 alpha_mix =  0.300 |ddv_scf|^2 =  1.607E-09

      iter #   3 total cpu time :  2227.9 secs   av.it.:  17.8
      thresh= 4.009E-06 alpha_mix =  0.300 |ddv_scf|^2 =  5.121E-11

      iter #   4 total cpu time :  2249.7 secs   av.it.:  18.3
      thresh= 7.156E-07 alpha_mix =  0.300 |ddv_scf|^2 =  2.633E-12

      iter #   5 total cpu time :  2271.6 secs   av.it.:  18.1
      thresh= 1.623E-07 alpha_mix =  0.300 |ddv_scf|^2 =  1.808E-13

      iter #   6 total cpu time :  2292.4 secs   av.it.:  17.6
      thresh= 4.252E-08 alpha_mix =  0.300 |ddv_scf|^2 =  3.785E-14

      iter #   7 total cpu time :  2311.5 secs   av.it.:  18.1
      thresh= 1.946E-08 alpha_mix =  0.300 |ddv_scf|^2 =  1.700E-15

     End of self-consistent calculation

     Convergence has been achieved 


     Representation #  15 modes #  18  19

     Self-consistent Calculation

      iter #   1 total cpu time :  2343.4 secs   av.it.:   7.2
      thresh= 1.000E-02 alpha_mix =  0.300 |ddv_scf|^2 =  7.978E-09

      iter #   2 total cpu time :  2363.9 secs   av.it.:  17.0
      thresh= 8.932E-06 alpha_mix =  0.300 |ddv_scf|^2 =  1.483E-09

      iter #   3 total cpu time :  2382.8 secs   av.it.:  17.6
      thresh= 3.852E-06 alpha_mix =  0.300 |ddv_scf|^2 =  4.789E-11

      iter #   4 total cpu time :  2405.5 secs   av.it.:  18.0
      thresh= 6.920E-07 alpha_mix =  0.300 |ddv_scf|^2 =  2.879E-12

      iter #   5 total cpu time :  2425.8 secs   av.it.:  17.8
      thresh= 1.697E-07 alpha_mix =  0.300 |ddv_scf|^2 =  1.881E-13

      iter #   6 total cpu time :  2447.0 secs   av.it.:  17.6
      thresh= 4.337E-08 alpha_mix =  0.300 |ddv_scf|^2 =  2.988E-14

      iter #   7 total cpu time :  2467.4 secs   av.it.:  17.9
      thresh= 1.729E-08 alpha_mix =  0.300 |ddv_scf|^2 =  1.623E-15

     End of self-consistent calculation

     Convergence has been achieved 


     Representation #  16 modes #  20  21

     Self-consistent Calculation

      iter #   1 total cpu time :  2499.4 secs   av.it.:   7.2
      thresh= 1.000E-02 alpha_mix =  0.300 |ddv_scf|^2 =  7.976E-09

      iter #   2 total cpu time :  2521.9 secs   av.it.:  17.2
      thresh= 8.931E-06 alpha_mix =  0.300 |ddv_scf|^2 =  1.484E-09

      iter #   3 total cpu time :  2543.0 secs   av.it.:  17.9
      thresh= 3.852E-06 alpha_mix =  0.300 |ddv_scf|^2 =  4.787E-11

      iter #   4 total cpu time :  2563.7 secs   av.it.:  18.2
      thresh= 6.919E-07 alpha_mix =  0.300 |ddv_scf|^2 =  2.875E-12

      iter #   5 total cpu time :  2585.6 secs   av.it.:  18.0
      thresh= 1.696E-07 alpha_mix =  0.300 |ddv_scf|^2 =  1.901E-13

      iter #   6 total cpu time :  2606.0 secs   av.it.:  17.8
      thresh= 4.360E-08 alpha_mix =  0.300 |ddv_scf|^2 =  2.993E-14

      iter #   7 total cpu time :  2626.1 secs   av.it.:  18.1
      thresh= 1.730E-08 alpha_mix =  0.300 |ddv_scf|^2 =  1.623E-15

     End of self-consistent calculation

     Convergence has been achieved 


     Representation #  17 modes #  22  23

     Self-consistent Calculation

      iter #   1 total cpu time :  2658.6 secs   av.it.:   6.8
      thresh= 1.000E-02 alpha_mix =  0.300 |ddv_scf|^2 =  1.072E-09

      iter #   2 total cpu time :  2677.7 secs   av.it.:  17.5
      thresh= 3.274E-06 alpha_mix =  0.300 |ddv_scf|^2 =  2.611E-10

      iter #   3 total cpu time :  2698.7 secs   av.it.:  17.8
      thresh= 1.616E-06 alpha_mix =  0.300 |ddv_scf|^2 =  2.748E-11

      iter #   4 total cpu time :  2718.9 secs   av.it.:  18.1
      thresh= 5.243E-07 alpha_mix =  0.300 |ddv_scf|^2 =  6.774E-13

      iter #   5 total cpu time :  2740.5 secs   av.it.:  17.9
      thresh= 8.230E-08 alpha_mix =  0.300 |ddv_scf|^2 =  1.372E-13

      iter #   6 total cpu time :  2761.8 secs   av.it.:  18.2
      thresh= 3.703E-08 alpha_mix =  0.300 |ddv_scf|^2 =  8.294E-15

     End of self-consistent calculation

     Convergence has been achieved 


     Representation #  18 modes #  24  25

     Self-consistent Calculation

      iter #   1 total cpu time :  2793.9 secs   av.it.:   7.3
      thresh= 1.000E-02 alpha_mix =  0.300 |ddv_scf|^2 =  7.998E-09

      iter #   2 total cpu time :  2814.6 secs   av.it.:  17.3
      thresh= 8.943E-06 alpha_mix =  0.300 |ddv_scf|^2 =  1.484E-09

      iter #   3 total cpu time :  2836.4 secs   av.it.:  17.8
      thresh= 3.853E-06 alpha_mix =  0.300 |ddv_scf|^2 =  6.506E-11

      iter #   4 total cpu time :  2859.4 secs   av.it.:  18.3
      thresh= 8.066E-07 alpha_mix =  0.300 |ddv_scf|^2 =  2.156E-12

      iter #   5 total cpu time :  2882.2 secs   av.it.:  18.0
      thresh= 1.468E-07 alpha_mix =  0.300 |ddv_scf|^2 =  1.876E-13

      iter #   6 total cpu time :  2904.1 secs   av.it.:  17.7
      thresh= 4.331E-08 alpha_mix =  0.300 |ddv_scf|^2 =  4.008E-14

      iter #   7 total cpu time :  2924.2 secs   av.it.:  18.1
      thresh= 2.002E-08 alpha_mix =  0.300 |ddv_scf|^2 =  1.339E-15

     End of self-consistent calculation

     Convergence has been achieved 


     Representation #  19 modes #  26  27

     Self-consistent Calculation

      iter #   1 total cpu time :  2955.3 secs   av.it.:   7.2
      thresh= 1.000E-02 alpha_mix =  0.300 |ddv_scf|^2 =  2.886E-09

      iter #   2 total cpu time :  2975.0 secs   av.it.:  17.3
      thresh= 5.372E-06 alpha_mix =  0.300 |ddv_scf|^2 =  8.255E-10

      iter #   3 total cpu time :  2995.4 secs   av.it.:  18.1
      thresh= 2.873E-06 alpha_mix =  0.300 |ddv_scf|^2 =  3.033E-11

      iter #   4 total cpu time :  3016.6 secs   av.it.:  18.3
      thresh= 5.507E-07 alpha_mix =  0.300 |ddv_scf|^2 =  1.147E-12

      iter #   5 total cpu time :  3037.4 secs   av.it.:  17.9
      thresh= 1.071E-07 alpha_mix =  0.300 |ddv_scf|^2 =  1.365E-13

      iter #   6 total cpu time :  3057.4 secs   av.it.:  18.0
      thresh= 3.694E-08 alpha_mix =  0.300 |ddv_scf|^2 =  1.658E-14

      iter #   7 total cpu time :  3077.4 secs   av.it.:  18.3
      thresh= 1.288E-08 alpha_mix =  0.300 |ddv_scf|^2 =  4.484E-16

     End of self-consistent calculation

     Convergence has been achieved 


     Representation #  20 modes #  28  29

     Self-consistent Calculation

      iter #   1 total cpu time :  3109.1 secs   av.it.:   7.3
      thresh= 1.000E-02 alpha_mix =  0.300 |ddv_scf|^2 =  8.725E-09

      iter #   2 total cpu time :  3131.6 secs   av.it.:  17.2
      thresh= 9.341E-06 alpha_mix =  0.300 |ddv_scf|^2 =  1.607E-09

      iter #   3 total cpu time :  3153.0 secs   av.it.:  17.8
      thresh= 4.008E-06 alpha_mix =  0.300 |ddv_scf|^2 =  5.123E-11

      iter #   4 total cpu time :  3173.3 secs   av.it.:  18.3
      thresh= 7.157E-07 alpha_mix =  0.300 |ddv_scf|^2 =  2.628E-12

      iter #   5 total cpu time :  3194.0 secs   av.it.:  18.1
      thresh= 1.621E-07 alpha_mix =  0.300 |ddv_scf|^2 =  1.793E-13

      iter #   6 total cpu time :  3214.5 secs   av.it.:  17.6
      thresh= 4.235E-08 alpha_mix =  0.300 |ddv_scf|^2 =  3.770E-14

      iter #   7 total cpu time :  3234.6 secs   av.it.:  18.1
      thresh= 1.942E-08 alpha_mix =  0.300 |ddv_scf|^2 =  1.699E-15

     End of self-consistent calculation

     Convergence has been achieved 


     Representation #  21 modes #  30  31

     Self-consistent Calculation

      iter #   1 total cpu time :  3262.7 secs   av.it.:   7.5
      thresh= 1.000E-02 alpha_mix =  0.300 |ddv_scf|^2 =  8.642E-09

      iter #   2 total cpu time :  3282.1 secs   av.it.:  17.3
      thresh= 9.296E-06 alpha_mix =  0.300 |ddv_scf|^2 =  1.640E-09

      iter #   3 total cpu time :  3302.0 secs   av.it.:  17.9
      thresh= 4.050E-06 alpha_mix =  0.300 |ddv_scf|^2 =  5.990E-11

      iter #   4 total cpu time :  3322.7 secs   av.it.:  18.3
      thresh= 7.740E-07 alpha_mix =  0.300 |ddv_scf|^2 =  2.821E-12

      iter #   5 total cpu time :  3343.2 secs   av.it.:  18.1
      thresh= 1.679E-07 alpha_mix =  0.300 |ddv_scf|^2 =  1.702E-13

      iter #   6 total cpu time :  3364.3 secs   av.it.:  17.7
      thresh= 4.125E-08 alpha_mix =  0.300 |ddv_scf|^2 =  3.567E-14

      iter #   7 total cpu time :  3383.6 secs   av.it.:  18.0
      thresh= 1.889E-08 alpha_mix =  0.300 |ddv_scf|^2 =  1.614E-15

     End of self-consistent calculation

     Convergence has been achieved 


     Representation #  22 modes #  32  33

     Self-consistent Calculation

      iter #   1 total cpu time :  3414.7 secs   av.it.:  10.8
      thresh= 1.000E-02 alpha_mix =  0.300 |ddv_scf|^2 =  5.228E-07

      iter #   2 total cpu time :  3435.2 secs   av.it.:  16.7
      thresh= 7.231E-05 alpha_mix =  0.300 |ddv_scf|^2 =  7.259E-08

      iter #   3 total cpu time :  3457.8 secs   av.it.:  17.2
      thresh= 2.694E-05 alpha_mix =  0.300 |ddv_scf|^2 =  3.792E-10

      iter #   4 total cpu time :  3479.8 secs   av.it.:  17.9
      thresh= 1.947E-06 alpha_mix =  0.300 |ddv_scf|^2 =  3.106E-11

      iter #   5 total cpu time :  3501.8 secs   av.it.:  17.6
      thresh= 5.573E-07 alpha_mix =  0.300 |ddv_scf|^2 =  3.659E-12

      iter #   6 total cpu time :  3522.3 secs   av.it.:  17.8
      thresh= 1.913E-07 alpha_mix =  0.300 |ddv_scf|^2 =  1.920E-13

      iter #   7 total cpu time :  3544.9 secs   av.it.:  17.8
      thresh= 4.381E-08 alpha_mix =  0.300 |ddv_scf|^2 =  9.752E-15

     End of self-consistent calculation

     Convergence has been achieved 
 
     Number of q in the star =    8
     List of q in the star:
          1   0.235702260   0.235702260  -0.235702260
          2   0.235702260  -0.235702260  -0.235702260
          3   0.235702260   0.235702260   0.235702260
          4  -0.235702260  -0.235702260   0.235702260
          5  -0.235702260   0.235702260  -0.235702260
          6  -0.235702260  -0.235702260  -0.235702260
          7  -0.235702260   0.235702260   0.235702260
          8   0.235702260  -0.235702260   0.235702260

     Diagonalizing the dynamical matrix

     q = (    0.235702260   0.235702260  -0.235702260 ) 

 **************************************************************************
     freq (    1) =       6.014590 [THz] =     200.625116 [cm-1]
     freq (    2) =       6.014590 [THz] =     200.625116 [cm-1]
     freq (    3) =       8.913227 [THz] =     297.313234 [cm-1]
     freq (    4) =      22.961012 [THz] =     765.896914 [cm-1]
     freq (    5) =      25.432302 [THz] =     848.330267 [cm-1]
     freq (    6) =      25.432302 [THz] =     848.330267 [cm-1]
     freq (    7) =      28.718839 [THz] =     957.957352 [cm-1]
     freq (    8) =      28.718839 [THz] =     957.957352 [cm-1]
     freq (    9) =      31.627802 [THz] =    1054.989901 [cm-1]
     freq (   10) =      35.374718 [THz] =    1179.973594 [cm-1]
     freq (   11) =      35.374718 [THz] =    1179.973594 [cm-1]
     freq (   12) =      38.261799 [THz] =    1276.276251 [cm-1]
     freq (   13) =      39.398025 [THz] =    1314.176668 [cm-1]
     freq (   14) =      39.398025 [THz] =    1314.176668 [cm-1]
     freq (   15) =      42.370445 [THz] =    1413.325919 [cm-1]
     freq (   16) =      42.970817 [THz] =    1433.352182 [cm-1]
     freq (   17) =      42.970817 [THz] =    1433.352182 [cm-1]
     freq (   18) =      43.328550 [THz] =    1445.284870 [cm-1]
     freq (   19) =      43.328550 [THz] =    1445.284870 [cm-1]
     freq (   20) =      43.339810 [THz] =    1445.660457 [cm-1]
     freq (   21) =      44.738594 [THz] =    1492.318853 [cm-1]
     freq (   22) =      46.944712 [THz] =    1565.907026 [cm-1]
     freq (   23) =      46.944712 [THz] =    1565.907026 [cm-1]
     freq (   24) =      51.638719 [THz] =    1722.482273 [cm-1]
     freq (   25) =      51.638719 [THz] =    1722.482273 [cm-1]
     freq (   26) =      52.616246 [THz] =    1755.089042 [cm-1]
     freq (   27) =      53.912567 [THz] =    1798.329659 [cm-1]
     freq (   28) =      54.108047 [THz] =    1804.850180 [cm-1]
     freq (   29) =      54.108047 [THz] =    1804.850180 [cm-1]
     freq (   30) =      54.917308 [THz] =    1831.844205 [cm-1]
     freq (   31) =      54.917308 [THz] =    1831.844205 [cm-1]
     freq (   32) =      61.150125 [THz] =    2039.748627 [cm-1]
     freq (   33) =      67.671601 [THz] =    2257.281625 [cm-1]
 **************************************************************************

     Mode symmetry, C_3v (3m)   point group:

     freq (   1-   2) =        200.6  [cm-1]   --> E    L_3           
     freq (   3-   3) =        297.3  [cm-1]   --> A_1  L_1           
     freq (   4-   4) =        765.9  [cm-1]   --> A_1  L_1           
     freq (   5-   6) =        848.3  [cm-1]   --> E    L_3           
     freq (   7-   8) =        958.0  [cm-1]   --> E    L_3           
     freq (   9-   9) =       1055.0  [cm-1]   --> A_1  L_1           
     freq (  10-  11) =       1180.0  [cm-1]   --> E    L_3           
     freq (  12-  12) =       1276.3  [cm-1]   --> A_2  L_2           
     freq (  13-  14) =       1314.2  [cm-1]   --> E    L_3           
     freq (  15-  15) =       1413.3  [cm-1]   --> A_1  L_1           
     freq (  16-  17) =       1433.4  [cm-1]   --> E    L_3           
     freq (  18-  19) =       1445.3  [cm-1]   --> E    L_3           
     freq (  20-  20) =       1445.7  [cm-1]   --> A_2  L_2           
     freq (  21-  21) =       1492.3  [cm-1]   --> A_1  L_1           
     freq (  22-  23) =       1565.9  [cm-1]   --> E    L_3           
     freq (  24-  25) =       1722.5  [cm-1]   --> E    L_3           
     freq (  26-  26) =       1755.1  [cm-1]   --> A_1  L_1           
     freq (  27-  27) =       1798.3  [cm-1]   --> A_1  L_1           
     freq (  28-  29) =       1804.9  [cm-1]   --> E    L_3           
     freq (  30-  31) =       1831.8  [cm-1]   --> E    L_3           
     freq (  32-  32) =       2039.7  [cm-1]   --> A_1  L_1           
     freq (  33-  33) =       2257.3  [cm-1]   --> A_1  L_1           
     Electron-phonon interaction  ...

     Gaussian Broadening:   0.005 Ry, ngauss=   0
     DOS =  4.794684 states/spin/Ry/Unit Cell at Ef= 22.110855 eV
     lambda(    1)=  0.0032   gamma=    0.54 GHz
     lambda(    2)=  0.0037   gamma=    0.61 GHz
     lambda(    3)=  0.0026   gamma=    0.96 GHz
     lambda(    4)=  0.1448   gamma=  349.51 GHz
     lambda(    5)=  0.0045   gamma=   13.20 GHz
     lambda(    6)=  0.0037   gamma=   11.04 GHz
     lambda(    7)=  0.0029   gamma=   11.01 GHz
     lambda(    8)=  0.0030   gamma=   11.35 GHz
     lambda(    9)=  0.1631   gamma=  746.79 GHz
     lambda(   10)=  0.0107   gamma=   61.19 GHz
     lambda(   11)=  0.0113   gamma=   64.61 GHz
     lambda(   12)=  0.0008   gamma=    5.03 GHz
     lambda(   13)=  0.0041   gamma=   29.07 GHz
     lambda(   14)=  0.0034   gamma=   24.37 GHz
     lambda(   15)=  0.0352   gamma=  289.64 GHz
     lambda(   16)=  0.0158   gamma=  133.51 GHz
     lambda(   17)=  0.0156   gamma=  132.30 GHz
     lambda(   18)=  0.0017   gamma=   14.65 GHz
     lambda(   19)=  0.0020   gamma=   16.83 GHz
     lambda(   20)=  0.0043   gamma=   36.86 GHz
     lambda(   21)=  0.0052   gamma=   47.56 GHz
     lambda(   22)=  0.0110   gamma=  110.55 GHz
     lambda(   23)=  0.0123   gamma=  123.83 GHz
     lambda(   24)=  0.0061   gamma=   74.25 GHz
     lambda(   25)=  0.0057   gamma=   69.29 GHz
     lambda(   26)=  0.0328   gamma=  416.35 GHz
     lambda(   27)=  0.0188   gamma=  250.66 GHz
     lambda(   28)=  0.0056   gamma=   75.26 GHz
     lambda(   29)=  0.0054   gamma=   72.22 GHz
     lambda(   30)=  0.0025   gamma=   34.97 GHz
     lambda(   31)=  0.0025   gamma=   35.03 GHz
     lambda(   32)=  0.0035   gamma=   59.17 GHz
     lambda(   33)=  0.0190   gamma=  398.55 GHz
     Gaussian Broadening:   0.010 Ry, ngauss=   0
     DOS =  4.491154 states/spin/Ry/Unit Cell at Ef= 22.118081 eV
     lambda(    1)=  0.0028   gamma=    0.44 GHz
     lambda(    2)=  0.0029   gamma=    0.45 GHz
     lambda(    3)=  0.0041   gamma=    1.41 GHz
     lambda(    4)=  0.0841   gamma=  190.25 GHz
     lambda(    5)=  0.0072   gamma=   20.03 GHz
     lambda(    6)=  0.0068   gamma=   18.81 GHz
     lambda(    7)=  0.0049   gamma=   17.43 GHz
     lambda(    8)=  0.0050   gamma=   17.70 GHz
     lambda(    9)=  0.0759   gamma=  325.60 GHz
     lambda(   10)=  0.0237   gamma=  127.39 GHz
     lambda(   11)=  0.0244   gamma=  130.74 GHz
     lambda(   12)=  0.0013   gamma=    8.16 GHz
     lambda(   13)=  0.0033   gamma=   22.08 GHz
     lambda(   14)=  0.0030   gamma=   19.75 GHz
     lambda(   15)=  0.0179   gamma=  138.06 GHz
     lambda(   16)=  0.0150   gamma=  119.17 GHz
     lambda(   17)=  0.0150   gamma=  118.71 GHz
     lambda(   18)=  0.0069   gamma=   55.73 GHz
     lambda(   19)=  0.0070   gamma=   56.46 GHz
     lambda(   20)=  0.0112   gamma=   90.36 GHz
     lambda(   21)=  0.0048   gamma=   41.51 GHz
     lambda(   22)=  0.0105   gamma=   99.12 GHz
     lambda(   23)=  0.0109   gamma=  103.02 GHz
     lambda(   24)=  0.0038   gamma=   43.70 GHz
     lambda(   25)=  0.0037   gamma=   41.90 GHz
     lambda(   26)=  0.0165   gamma=  196.36 GHz
     lambda(   27)=  0.0169   gamma=  210.54 GHz
     lambda(   28)=  0.0079   gamma=   99.31 GHz
     lambda(   29)=  0.0075   gamma=   93.78 GHz
     lambda(   30)=  0.0036   gamma=   46.97 GHz
     lambda(   31)=  0.0036   gamma=   46.92 GHz
     lambda(   32)=  0.0037   gamma=   59.32 GHz
     lambda(   33)=  0.0090   gamma=  177.33 GHz
     Gaussian Broadening:   0.015 Ry, ngauss=   0
     DOS =  4.448291 states/spin/Ry/Unit Cell at Ef= 22.124358 eV
     lambda(    1)=  0.0030   gamma=    0.47 GHz
     lambda(    2)=  0.0029   gamma=    0.45 GHz
     lambda(    3)=  0.0046   gamma=    1.55 GHz
     lambda(    4)=  0.0650   gamma=  145.46 GHz
     lambda(    5)=  0.0088   gamma=   24.22 GHz
     lambda(    6)=  0.0085   gamma=   23.31 GHz
     lambda(    7)=  0.0051   gamma=   18.04 GHz
     lambda(    8)=  0.0052   gamma=   18.22 GHz
     lambda(    9)=  0.0505   gamma=  214.44 GHz
     lambda(   10)=  0.0232   gamma=  123.25 GHz
     lambda(   11)=  0.0237   gamma=  125.87 GHz
     lambda(   12)=  0.0014   gamma=    8.78 GHz
     lambda(   13)=  0.0038   gamma=   24.83 GHz
     lambda(   14)=  0.0036   gamma=   23.84 GHz
     lambda(   15)=  0.0146   gamma=  111.03 GHz
     lambda(   16)=  0.0133   gamma=  104.66 GHz
     lambda(   17)=  0.0133   gamma=  104.53 GHz
     lambda(   18)=  0.0093   gamma=   73.77 GHz
     lambda(   19)=  0.0092   gamma=   73.49 GHz
     lambda(   20)=  0.0125   gamma=   99.74 GHz
     lambda(   21)=  0.0052   gamma=   44.24 GHz
     lambda(   22)=  0.0107   gamma=   99.89 GHz
     lambda(   23)=  0.0105   gamma=   98.54 GHz
     lambda(   24)=  0.0034   gamma=   38.52 GHz
     lambda(   25)=  0.0033   gamma=   37.44 GHz
     lambda(   26)=  0.0128   gamma=  151.01 GHz
     lambda(   27)=  0.0146   gamma=  180.56 GHz
     lambda(   28)=  0.0081   gamma=  101.26 GHz
     lambda(   29)=  0.0079   gamma=   97.96 GHz
     lambda(   30)=  0.0041   gamma=   52.90 GHz
     lambda(   31)=  0.0041   gamma=   52.76 GHz
     lambda(   32)=  0.0040   gamma=   62.75 GHz
     lambda(   33)=  0.0066   gamma=  127.83 GHz
     Gaussian Broadening:   0.020 Ry, ngauss=   0
     DOS =  4.528357 states/spin/Ry/Unit Cell at Ef= 22.128042 eV
     lambda(    1)=  0.0037   gamma=    0.57 GHz
     lambda(    2)=  0.0035   gamma=    0.55 GHz
     lambda(    3)=  0.0050   gamma=    1.73 GHz
     lambda(    4)=  0.0716   gamma=  163.31 GHz
     lambda(    5)=  0.0111   gamma=   31.18 GHz
     lambda(    6)=  0.0109   gamma=   30.37 GHz
     lambda(    7)=  0.0056   gamma=   20.01 GHz
     lambda(    8)=  0.0056   gamma=   20.12 GHz
     lambda(    9)=  0.0440   gamma=  190.49 GHz
     lambda(   10)=  0.0216   gamma=  117.10 GHz
     lambda(   11)=  0.0222   gamma=  119.88 GHz
     lambda(   12)=  0.0016   gamma=    9.93 GHz
     lambda(   13)=  0.0049   gamma=   33.10 GHz
     lambda(   14)=  0.0049   gamma=   32.65 GHz
     lambda(   15)=  0.0150   gamma=  116.83 GHz
     lambda(   16)=  0.0130   gamma=  103.93 GHz
     lambda(   17)=  0.0130   gamma=  103.88 GHz
     lambda(   18)=  0.0097   gamma=   78.65 GHz
     lambda(   19)=  0.0097   gamma=   78.72 GHz
     lambda(   20)=  0.0128   gamma=  103.68 GHz
     lambda(   21)=  0.0060   gamma=   51.92 GHz
     lambda(   22)=  0.0109   gamma=  104.01 GHz
     lambda(   23)=  0.0107   gamma=  101.51 GHz
     lambda(   24)=  0.0037   gamma=   42.97 GHz
     lambda(   25)=  0.0036   gamma=   41.83 GHz
     lambda(   26)=  0.0120   gamma=  144.00 GHz
     lambda(   27)=  0.0145   gamma=  181.71 GHz
     lambda(   28)=  0.0088   gamma=  110.94 GHz
     lambda(   29)=  0.0087   gamma=  110.20 GHz
     lambda(   30)=  0.0049   gamma=   63.77 GHz
     lambda(   31)=  0.0049   gamma=   63.65 GHz
     lambda(   32)=  0.0051   gamma=   82.42 GHz
     lambda(   33)=  0.0062   gamma=  122.63 GHz
     Gaussian Broadening:   0.025 Ry, ngauss=   0
     DOS =  4.634996 states/spin/Ry/Unit Cell at Ef= 22.128678 eV
     lambda(    1)=  0.0044   gamma=    0.70 GHz
     lambda(    2)=  0.0042   gamma=    0.67 GHz
     lambda(    3)=  0.0058   gamma=    2.06 GHz
     lambda(    4)=  0.0782   gamma=  182.38 GHz
     lambda(    5)=  0.0131   gamma=   37.58 GHz
     lambda(    6)=  0.0129   gamma=   36.98 GHz
     lambda(    7)=  0.0061   gamma=   22.32 GHz
     lambda(    8)=  0.0061   gamma=   22.39 GHz
     lambda(    9)=  0.0420   gamma=  186.06 GHz
     lambda(   10)=  0.0210   gamma=  116.45 GHz
     lambda(   11)=  0.0215   gamma=  118.96 GHz
     lambda(   12)=  0.0019   gamma=   12.28 GHz
     lambda(   13)=  0.0061   gamma=   42.22 GHz
     lambda(   14)=  0.0061   gamma=   42.00 GHz
     lambda(   15)=  0.0163   gamma=  129.30 GHz
     lambda(   16)=  0.0133   gamma=  109.02 GHz
     lambda(   17)=  0.0133   gamma=  109.02 GHz
     lambda(   18)=  0.0101   gamma=   83.72 GHz
     lambda(   19)=  0.0101   gamma=   84.23 GHz
     lambda(   20)=  0.0132   gamma=  109.50 GHz
     lambda(   21)=  0.0073   gamma=   64.31 GHz
     lambda(   22)=  0.0117   gamma=  113.96 GHz
     lambda(   23)=  0.0114   gamma=  111.16 GHz
     lambda(   24)=  0.0045   gamma=   52.70 GHz
     lambda(   25)=  0.0044   gamma=   51.60 GHz
     lambda(   26)=  0.0121   gamma=  147.80 GHz
     lambda(   27)=  0.0150   gamma=  192.46 GHz
     lambda(   28)=  0.0095   gamma=  122.71 GHz
     lambda(   29)=  0.0095   gamma=  123.15 GHz
     lambda(   30)=  0.0057   gamma=   75.77 GHz
     lambda(   31)=  0.0057   gamma=   75.62 GHz
     lambda(   32)=  0.0059   gamma=   97.32 GHz
     lambda(   33)=  0.0065   gamma=  132.72 GHz
     Gaussian Broadening:   0.030 Ry, ngauss=   0
     DOS =  4.755068 states/spin/Ry/Unit Cell at Ef= 22.126761 eV
     lambda(    1)=  0.0051   gamma=    0.84 GHz
     lambda(    2)=  0.0049   gamma=    0.81 GHz
     lambda(    3)=  0.0069   gamma=    2.49 GHz
     lambda(    4)=  0.0813   gamma=  194.54 GHz
     lambda(    5)=  0.0146   gamma=   42.74 GHz
     lambda(    6)=  0.0144   gamma=   42.40 GHz
     lambda(    7)=  0.0065   gamma=   24.50 GHz
     lambda(    8)=  0.0066   gamma=   24.56 GHz
     lambda(    9)=  0.0408   gamma=  185.45 GHz
     lambda(   10)=  0.0208   gamma=  118.13 GHz
     lambda(   11)=  0.0211   gamma=  119.95 GHz
     lambda(   12)=  0.0024   gamma=   16.15 GHz
     lambda(   13)=  0.0073   gamma=   51.16 GHz
     lambda(   14)=  0.0072   gamma=   50.97 GHz
     lambda(   15)=  0.0175   gamma=  143.01 GHz
     lambda(   16)=  0.0138   gamma=  115.30 GHz
     lambda(   17)=  0.0138   gamma=  115.35 GHz
     lambda(   18)=  0.0105   gamma=   89.87 GHz
     lambda(   19)=  0.0106   gamma=   90.57 GHz
     lambda(   20)=  0.0137   gamma=  117.13 GHz
     lambda(   21)=  0.0088   gamma=   79.73 GHz
     lambda(   22)=  0.0127   gamma=  126.88 GHz
     lambda(   23)=  0.0124   gamma=  123.93 GHz
     lambda(   24)=  0.0053   gamma=   64.76 GHz
     lambda(   25)=  0.0053   gamma=   63.83 GHz
     lambda(   26)=  0.0122   gamma=  153.41 GHz
     lambda(   27)=  0.0156   gamma=  206.10 GHz
     lambda(   28)=  0.0101   gamma=  133.83 GHz
     lambda(   29)=  0.0101   gamma=  134.43 GHz
     lambda(   30)=  0.0064   gamma=   87.81 GHz
     lambda(   31)=  0.0064   gamma=   87.58 GHz
     lambda(   32)=  0.0063   gamma=  106.25 GHz
     lambda(   33)=  0.0070   gamma=  146.23 GHz
     Gaussian Broadening:   0.035 Ry, ngauss=   0
     DOS =  4.903732 states/spin/Ry/Unit Cell at Ef= 22.122264 eV
     lambda(    1)=  0.0059   gamma=    1.00 GHz
     lambda(    2)=  0.0057   gamma=    0.97 GHz
     lambda(    3)=  0.0080   gamma=    2.98 GHz
     lambda(    4)=  0.0822   gamma=  202.85 GHz
     lambda(    5)=  0.0156   gamma=   47.28 GHz
     lambda(    6)=  0.0156   gamma=   47.17 GHz
     lambda(    7)=  0.0069   gamma=   26.73 GHz
     lambda(    8)=  0.0069   gamma=   26.79 GHz
     lambda(    9)=  0.0397   gamma=  186.15 GHz
     lambda(   10)=  0.0208   gamma=  121.73 GHz
     lambda(   11)=  0.0210   gamma=  122.77 GHz
     lambda(   12)=  0.0031   gamma=   21.51 GHz
     lambda(   13)=  0.0082   gamma=   59.72 GHz
     lambda(   14)=  0.0082   gamma=   59.44 GHz
     lambda(   15)=  0.0187   gamma=  157.42 GHz
     lambda(   16)=  0.0142   gamma=  122.37 GHz
     lambda(   17)=  0.0142   gamma=  122.48 GHz
     lambda(   18)=  0.0110   gamma=   96.52 GHz
     lambda(   19)=  0.0111   gamma=   97.21 GHz
     lambda(   20)=  0.0145   gamma=  127.20 GHz
     lambda(   21)=  0.0103   gamma=   96.31 GHz
     lambda(   22)=  0.0137   gamma=  141.06 GHz
     lambda(   23)=  0.0134   gamma=  138.02 GHz
     lambda(   24)=  0.0062   gamma=   77.63 GHz
     lambda(   25)=  0.0062   gamma=   76.91 GHz
     lambda(   26)=  0.0123   gamma=  159.07 GHz
     lambda(   27)=  0.0163   gamma=  221.61 GHz
     lambda(   28)=  0.0106   gamma=  144.96 GHz
     lambda(   29)=  0.0106   gamma=  145.26 GHz
     lambda(   30)=  0.0071   gamma=  100.19 GHz
     lambda(   31)=  0.0071   gamma=   99.88 GHz
     lambda(   32)=  0.0064   gamma=  112.01 GHz
     lambda(   33)=  0.0074   gamma=  159.22 GHz
     Gaussian Broadening:   0.040 Ry, ngauss=   0
     DOS =  5.088867 states/spin/Ry/Unit Cell at Ef= 22.114955 eV
     lambda(    1)=  0.0067   gamma=    1.18 GHz
     lambda(    2)=  0.0066   gamma=    1.15 GHz
     lambda(    3)=  0.0091   gamma=    3.51 GHz
     lambda(    4)=  0.0818   gamma=  209.68 GHz
     lambda(    5)=  0.0165   gamma=   51.79 GHz
     lambda(    6)=  0.0165   gamma=   51.87 GHz
     lambda(    7)=  0.0073   gamma=   29.23 GHz
     lambda(    8)=  0.0073   gamma=   29.29 GHz
     lambda(    9)=  0.0386   gamma=  187.81 GHz
     lambda(   10)=  0.0210   gamma=  127.88 GHz
     lambda(   11)=  0.0211   gamma=  128.26 GHz
     lambda(   12)=  0.0039   gamma=   28.02 GHz
     lambda(   13)=  0.0090   gamma=   67.80 GHz
     lambda(   14)=  0.0089   gamma=   67.43 GHz
     lambda(   15)=  0.0198   gamma=  172.63 GHz
     lambda(   16)=  0.0146   gamma=  130.75 GHz
     lambda(   17)=  0.0146   gamma=  130.91 GHz
     lambda(   18)=  0.0114   gamma=  103.64 GHz
     lambda(   19)=  0.0114   gamma=  104.25 GHz
     lambda(   20)=  0.0153   gamma=  140.02 GHz
     lambda(   21)=  0.0116   gamma=  112.91 GHz
     lambda(   22)=  0.0146   gamma=  155.83 GHz
     lambda(   23)=  0.0143   gamma=  152.79 GHz
     lambda(   24)=  0.0070   gamma=   90.79 GHz
     lambda(   25)=  0.0070   gamma=   90.26 GHz
     lambda(   26)=  0.0122   gamma=  164.64 GHz
     lambda(   27)=  0.0169   gamma=  238.85 GHz
     lambda(   28)=  0.0110   gamma=  156.78 GHz
     lambda(   29)=  0.0110   gamma=  156.65 GHz
     lambda(   30)=  0.0077   gamma=  113.43 GHz
     lambda(   31)=  0.0077   gamma=  113.05 GHz
     lambda(   32)=  0.0064   gamma=  116.33 GHz
     lambda(   33)=  0.0077   gamma=  170.56 GHz
     Gaussian Broadening:   0.045 Ry, ngauss=   0
     DOS =  5.309480 states/spin/Ry/Unit Cell at Ef= 22.104685 eV
     lambda(    1)=  0.0076   gamma=    1.40 GHz
     lambda(    2)=  0.0075   gamma=    1.37 GHz
     lambda(    3)=  0.0101   gamma=    4.07 GHz
     lambda(    4)=  0.0808   gamma=  215.95 GHz
     lambda(    5)=  0.0172   gamma=   56.56 GHz
     lambda(    6)=  0.0173   gamma=   56.76 GHz
     lambda(    7)=  0.0077   gamma=   32.08 GHz
     lambda(    8)=  0.0077   gamma=   32.15 GHz
     lambda(    9)=  0.0375   gamma=  190.33 GHz
     lambda(   10)=  0.0216   gamma=  136.78 GHz
     lambda(   11)=  0.0215   gamma=  136.68 GHz
     lambda(   12)=  0.0048   gamma=   35.38 GHz
     lambda(   13)=  0.0096   gamma=   75.49 GHz
     lambda(   14)=  0.0095   gamma=   75.06 GHz
     lambda(   15)=  0.0207   gamma=  188.55 GHz
     lambda(   16)=  0.0150   gamma=  140.65 GHz
     lambda(   17)=  0.0150   gamma=  140.84 GHz
     lambda(   18)=  0.0117   gamma=  111.32 GHz
     lambda(   19)=  0.0117   gamma=  111.81 GHz
     lambda(   20)=  0.0163   gamma=  155.22 GHz
     lambda(   21)=  0.0127   gamma=  129.04 GHz
     lambda(   22)=  0.0153   gamma=  170.88 GHz
     lambda(   23)=  0.0150   gamma=  167.91 GHz
     lambda(   24)=  0.0077   gamma=  104.23 GHz
     lambda(   25)=  0.0077   gamma=  103.87 GHz
     lambda(   26)=  0.0121   gamma=  170.14 GHz
     lambda(   27)=  0.0175   gamma=  257.33 GHz
     lambda(   28)=  0.0114   gamma=  169.42 GHz
     lambda(   29)=  0.0114   gamma=  168.87 GHz
     lambda(   30)=  0.0084   gamma=  127.89 GHz
     lambda(   31)=  0.0083   gamma=  127.47 GHz
     lambda(   32)=  0.0063   gamma=  120.00 GHz
     lambda(   33)=  0.0078   gamma=  180.19 GHz
     Gaussian Broadening:   0.050 Ry, ngauss=   0
     DOS =  5.560451 states/spin/Ry/Unit Cell at Ef= 22.091444 eV
     lambda(    1)=  0.0086   gamma=    1.65 GHz
     lambda(    2)=  0.0085   gamma=    1.63 GHz
     lambda(    3)=  0.0110   gamma=    4.66 GHz
     lambda(    4)=  0.0792   gamma=  221.79 GHz
     lambda(    5)=  0.0179   gamma=   61.62 GHz
     lambda(    6)=  0.0180   gamma=   61.92 GHz
     lambda(    7)=  0.0081   gamma=   35.27 GHz
     lambda(    8)=  0.0081   gamma=   35.36 GHz
     lambda(    9)=  0.0364   gamma=  193.54 GHz
     lambda(   10)=  0.0223   gamma=  148.11 GHz
     lambda(   11)=  0.0222   gamma=  147.74 GHz
     lambda(   12)=  0.0056   gamma=   43.32 GHz
     lambda(   13)=  0.0101   gamma=   82.96 GHz
     lambda(   14)=  0.0100   gamma=   82.50 GHz
     lambda(   15)=  0.0215   gamma=  204.83 GHz
     lambda(   16)=  0.0155   gamma=  151.90 GHz
     lambda(   17)=  0.0155   gamma=  152.09 GHz
     lambda(   18)=  0.0120   gamma=  119.45 GHz
     lambda(   19)=  0.0120   gamma=  119.84 GHz
     lambda(   20)=  0.0173   gamma=  172.13 GHz
     lambda(   21)=  0.0136   gamma=  144.58 GHz
     lambda(   22)=  0.0159   gamma=  185.98 GHz
     lambda(   23)=  0.0157   gamma=  183.18 GHz
     lambda(   24)=  0.0083   gamma=  118.06 GHz
     lambda(   25)=  0.0083   gamma=  117.83 GHz
     lambda(   26)=  0.0119   gamma=  175.59 GHz
     lambda(   27)=  0.0179   gamma=  276.16 GHz
     lambda(   28)=  0.0117   gamma=  182.64 GHz
     lambda(   29)=  0.0117   gamma=  181.75 GHz
     lambda(   30)=  0.0090   gamma=  143.71 GHz
     lambda(   31)=  0.0089   gamma=  143.27 GHz
     lambda(   32)=  0.0062   gamma=  123.27 GHz
     lambda(   33)=  0.0078   gamma=  188.46 GHz
 
 
     Number of q in the star =    8
     List of q in the star:
          1   0.235702260   0.235702260  -0.235702260
          2   0.235702260  -0.235702260  -0.235702260
          3   0.235702260   0.235702260   0.235702260
          4  -0.235702260  -0.235702260   0.235702260
          5  -0.235702260   0.235702260  -0.235702260
          6  -0.235702260  -0.235702260  -0.235702260
          7  -0.235702260   0.235702260   0.235702260
          8   0.235702260  -0.235702260   0.235702260
 
     init_run     :      0.41s CPU      0.61s WALL (       1 calls)
     electrons    :     11.48s CPU     14.27s WALL (       1 calls)

     Called by init_run:
     wfcinit      :      0.00s CPU      0.04s WALL (       1 calls)
     potinit      :      0.20s CPU      0.34s WALL (       1 calls)
     hinit0       :      0.10s CPU      0.11s WALL (       1 calls)

     Called by electrons:
     c_bands      :     11.47s CPU     14.26s WALL (       1 calls)
     v_of_rho     :      0.02s CPU      0.05s WALL (       2 calls)
     newd         :      0.04s CPU      0.10s WALL (       2 calls)
     PAW_pot      :      0.38s CPU      0.43s WALL (       2 calls)

     Called by c_bands:
     init_us_2    :      2.24s CPU      2.60s WALL (   25116 calls)
     cegterg      :      6.81s CPU      7.19s WALL (     225 calls)

     Called by *egterg:
     cdiaghg      :      2.10s CPU      2.28s WALL (    3714 calls)
     h_psi        :    754.59s CPU    944.87s WALL (  554580 calls)
     s_psi        :     24.82s CPU     26.99s WALL ( 1130701 calls)
     g_psi        :      0.02s CPU      0.02s WALL (    3532 calls)

     Called by h_psi:
     h_psi:calbec :     17.21s CPU     18.67s WALL (  554580 calls)
     vloc_psi     :    720.06s CPU    907.40s WALL (  554580 calls)
     add_vuspsi   :     12.85s CPU     14.00s WALL (  554580 calls)

     General routines
     calbec       :     64.36s CPU     67.88s WALL ( 1172470 calls)
     fft          :      1.95s CPU      2.59s WALL (    5971 calls)
     ffts         :     47.93s CPU     75.80s WALL (    4357 calls)
     fftw         :   1015.93s CPU   1402.81s WALL (10541215 calls)
     interpolate  :      0.78s CPU      1.08s WALL (     595 calls)
     davcio       :     11.93s CPU    619.29s WALL (  129131 calls)
 
     Parallel routines
 
     PHONON       :  38m34.90s CPU  59m45.33s WALL

     INITIALIZATION: 
     phq_setup    :      0.02s CPU      0.11s WALL (       1 calls)
     phq_init     :     14.67s CPU     17.49s WALL (       1 calls)
 
     phq_init     :     14.67s CPU     17.49s WALL (       1 calls)
     set_drhoc    :      0.00s CPU      0.00s WALL (       3 calls)
     init_vloc    :      0.01s CPU      0.03s WALL (       2 calls)
     init_us_1    :      0.15s CPU      0.31s WALL (       2 calls)
     init_us_2    :      2.24s CPU      2.60s WALL (   25116 calls)
     newd         :      0.04s CPU      0.10s WALL (       2 calls)
     dvanqq       :      1.57s CPU      1.59s WALL (       1 calls)
     drho         :      9.08s CPU     10.92s WALL (       1 calls)
     drhous       :      3.65s CPU      4.35s WALL (       1 calls)
     nldyntot     :      0.34s CPU      0.34s WALL (       1 calls)
 
     DYNAMICAL MATRIX:
     dynmat0      :      2.56s CPU      3.01s WALL (       1 calls)
     dynmat_us    :      2.52s CPU      2.92s WALL (       1 calls)
     addusdynmat  :      0.00s CPU      0.00s WALL (       1 calls)
     d2ionq       :      0.04s CPU      0.04s WALL (       1 calls)
     dynmatcc     :      0.01s CPU      0.01s WALL (       1 calls)
     phqscf       :   2260.35s CPU   3518.60s WALL (       1 calls)
     dynmatrix    :      0.27s CPU      0.31s WALL (       1 calls)
 
     phqscf       :   2260.35s CPU   3518.60s WALL (       1 calls)
     solve_linter :   2228.09s CPU   3464.34s WALL (      22 calls)
     sth_kernel   :   1776.34s CPU   2626.48s WALL (     204 calls)
     h_prec       :    392.04s CPU    398.76s WALL (   18564 calls)
     apply_dpot_b :    202.12s CPU    312.22s WALL (   25480 calls)
     ortho        :     31.35s CPU     32.36s WALL (   25480 calls)
     cgsolve      :    826.26s CPU   1022.92s WALL (   25480 calls)
     incdrhoscf   :    198.79s CPU    297.95s WALL (   25480 calls)
                                        0.00s GPU  (   25480 calls)
     addusddens   :     21.73s CPU     29.41s WALL (     226 calls)
     vpsifft      :     40.37s CPU     64.46s WALL (    3003 calls)
     dv_of_drho   :      2.52s CPU      2.84s WALL (     280 calls)
     mix_pot      :     41.36s CPU    140.07s WALL (     204 calls)
     drhodv       :     32.22s CPU     42.48s WALL (      22 calls)
     psymdvscf    :     30.24s CPU     30.58s WALL (     204 calls)
     newdq        :     23.67s CPU     23.83s WALL (     204 calls)
     adddvscf     :      3.08s CPU      3.41s WALL (   25480 calls)
     com_dvloc    :     47.52s CPU     75.16s WALL (    3762 calls)
                                        0.00s GPU  (    3762 calls)
     addcore      :      0.43s CPU      0.53s WALL (    1402 calls)
                                        0.00s GPU  (    1402 calls)
     drhodvus     :      7.67s CPU     32.35s WALL (      22 calls)
 
     dvqpsi_us    :     60.98s CPU     89.26s WALL (    3003 calls)
                                        0.00s GPU  (    3003 calls)
     dvqpsi_us_on :      9.21s CPU      9.33s WALL (    3003 calls)
 
     add_vuspsi   :     12.85s CPU     14.00s WALL (  554580 calls)
     addusdbec    :      1.62s CPU      1.74s WALL (   28483 calls)
 
     drhodvus     :      7.67s CPU     32.35s WALL (      22 calls)
 
      Electron-phonon coupling
     elphel       :     49.57s CPU    101.10s WALL (      22 calls)
     elphsum      :     26.55s CPU     26.96s WALL (       1 calls)
 
      General routines
     calbec       :     64.36s CPU     67.88s WALL ( 1172470 calls)
     fft          :      1.95s CPU      2.59s WALL (    5971 calls)
     ffts         :     47.93s CPU     75.80s WALL (    4357 calls)
     fftw         :   1015.93s CPU   1402.81s WALL (10541215 calls)
     davcio       :     11.93s CPU    619.29s WALL (  129131 calls)
     write_rec    :      0.33s CPU    124.82s WALL (     226 calls)
 
      Additional routines
     ch_psi       :    814.95s CPU   1010.51s WALL (  550641 calls)
     last         :     46.03s CPU     50.01s WALL (  550641 calls)
     Hesh         :      1.58s CPU      1.76s WALL (  550641 calls)
     ch_psi_all_k :     41.90s CPU     45.52s WALL (  550641 calls)
                                        0.00s GPU  (  550641 calls)
     ch_psi_calbe :     13.83s CPU     14.94s WALL (  550641 calls)
                                        0.00s GPU  (  550641 calls)
     h_psi_bgrp   :    755.74s CPU    946.09s WALL (  554580 calls)
     h_psi        :    754.59s CPU    944.87s WALL (  554580 calls)
     h_psi:pot    :    752.59s CPU    942.65s WALL (  554580 calls)
     h_psi:calbec :     17.21s CPU     18.67s WALL (  554580 calls)
     s_psi_bgrp   :     28.51s CPU     30.97s WALL ( 1130701 calls)
     s_psi        :     24.82s CPU     26.99s WALL ( 1130701 calls)
 
 
     PHONON       :  38m34.90s CPU  59m45.33s WALL

 
   This run was terminated on:  17: 1:36  22Oct2025            

=------------------------------------------------------------------------------=
   JOB DONE.
=------------------------------------------------------------------------------=
