
     Program PHONON v.7.4.1 starts on 22Oct2025 at 15:36:13 

     This program is part of the open-source Quantum ESPRESSO suite
     for quantum simulation of materials; please cite
         "P. Giannozzi et al., J. Phys.:Condens. Matter 21 395502 (2009);
         "P. Giannozzi et al., J. Phys.:Condens. Matter 29 465901 (2017);
         "P. Giannozzi et al., J. Chem. Phys. 152 154105 (2020);
          URL http://www.quantum-espresso.org", 
     in publications or presentations arising from this work. More details at
     http://www.quantum-espresso.org/quote

     Parallel version (MPI), running on    48 processors

     MPI processes distributed on     1 nodes
     180859 MiB available memory on the printing compute node when the environment starts
 
     Waiting for input...
     Reading input from standard input

     Reading xml data from directory:

     ./tmp/Ce1H10.save/
 
     K-points division:     npool     =       4
     R & G space division:  proc/nbgrp/npool/nimage =      12
     Subspace diagonalization in iterative solution of the eigenvalue problem:
     a serial algorithm will be used

     file Ce.paw.z_12.atompaw.wentzcovitch.v1.2.upf: wavefunction(s)  6S 0P 5D 0D 4F 0F renormalized
     file H.pbe-kjpaw_psl.1.0.0.UPF: wavefunction(s)  1S renormalized

     IMPORTANT: XC functional enforced from input :
     Exchange-correlation= PBE
                           (   1   4   3   4   0   0   0)
     Any further DFT definition will be discarded
     Please, verify this is what you really want

 
     Parallelization info
     --------------------
     sticks:   dense  smooth     PW     G-vecs:    dense   smooth      PW
     Min         226      76     22                 7730     1493     247
     Max         227      77     23                 7733     1495     249
     Sum        2713     913    271                92769    17933    2975
 
     Using Slab Decomposition
 
     Reading collected, re-writing distributed wavefunctions in ./tmp/


     Dynamical matrices for ( 6, 6, 6)  uniform grid of q-points
     (  16 q-points):
       N         xq(1)         xq(2)         xq(3) 
       1   0.000000000   0.000000000   0.000000000
       2   0.117851130   0.117851130  -0.117851130
       3   0.235702260   0.235702260  -0.235702260
       4  -0.353553391  -0.353553391   0.353553391
       5   0.235702260   0.000000000   0.000000000
       6   0.353553391   0.117851130  -0.117851130
       7  -0.235702260  -0.471404521   0.471404521
       8  -0.117851130  -0.353553391   0.353553391
       9   0.000000000  -0.235702260   0.235702260
      10   0.471404521   0.000000000   0.000000000
      11  -0.117851130  -0.589255651   0.589255651
      12  -0.000000000  -0.471404521   0.471404521
      13  -0.707106781   0.000000000   0.000000000
      14  -0.235702260  -0.471404521   0.707106781
      15  -0.117851130  -0.353553391   0.589255651
      16  -0.707106781   0.235702260   0.000000000

     Number and degeneracy of irreps per q-point
       N         xq(1)         xq(2)         xq(3)   N irreps
       1   0.000000000   0.000000000   0.000000000      13
        1   2   3   3   3   3   1   2   3   3   3   3   3
       2   0.117851130   0.117851130  -0.117851130      22
        1   1   1   1   1   1   1   1   1   1   1   2   2   2   2   2   2   2
   2   2   2   2
       3   0.235702260   0.235702260  -0.235702260      22
        1   1   1   1   1   1   1   1   1   1   1   2   2   2   2   2   2   2
   2   2   2   2
       4  -0.353553391  -0.353553391   0.353553391      22
        1   1   1   1   1   1   2   2   2   2   2   2   1   1   1   1   1   2
   2   2   2   2
       5   0.235702260   0.000000000   0.000000000      24
        1   1   1   1   1   1   1   1   1   1   1   1   1   1   1   2   2   2
   2   2   2   2   2   2
       6   0.353553391   0.117851130  -0.117851130      33
     No degeneracy
       7  -0.235702260  -0.471404521   0.471404521      33
     No degeneracy
       8  -0.117851130  -0.353553391   0.353553391      33
     No degeneracy
       9   0.000000000  -0.235702260   0.235702260      33
     No degeneracy
      10   0.471404521   0.000000000   0.000000000      24
        1   1   1   1   1   1   1   1   1   1   1   1   1   1   1   2   2   2
   2   2   2   2   2   2
      11  -0.117851130  -0.589255651   0.589255651      33
     No degeneracy
      12  -0.000000000  -0.471404521   0.471404521      33
     No degeneracy
      13  -0.707106781   0.000000000   0.000000000      24
        1   1   1   1   1   1   1   2   2   2   2   1   1   1   1   1   1   1
   1   2   2   2   2   2
      14  -0.235702260  -0.471404521   0.707106781      33
     No degeneracy
      15  -0.117851130  -0.353553391   0.589255651      33
     No degeneracy
      16  -0.707106781   0.235702260   0.000000000      33
     No degeneracy

     Saving dvscf to file. Distribute only q points, not irreducible representations.

     Calculation of q =    0.0000000   0.0000000   0.0000000

Possibly too few bands at point    1   0.00000   0.00000   0.00000

     Electron-phonon coefficients for Ce1H10                                    

     bravais-lattice index     =            0
     lattice parameter (alat)  =       6.3833  a.u.
     unit-cell volume          =     183.9165 (a.u.)^3
     number of atoms/cell      =           11
     number of atomic types    =            2
     kinetic-energy cut-off    =      80.0000  Ry
     charge density cut-off    =     960.0000  Ry
     convergence threshold     =      1.0E-14
     beta                      =       0.3000
     number of iterations used =            4
     Exchange-correlation= PBE
                           (   1   4   3   4   0   0   0)


     celldm(1)=    6.38330  celldm(2)=    0.00000  celldm(3)=    0.00000
     celldm(4)=    0.00000  celldm(5)=    0.00000  celldm(6)=    0.00000

     crystal axes: (cart. coord. in units of alat)
               a(1) = (  0.0000  0.7071  0.7071 )  
               a(2) = (  0.7071  0.0000  0.7071 )  
               a(3) = (  0.7071  0.7071  0.0000 )  

     reciprocal axes: (cart. coord. in units 2 pi/alat)
               b(1) = ( -0.7071  0.7071  0.7071 )  
               b(2) = (  0.7071 -0.7071  0.7071 )  
               b(3) = (  0.7071  0.7071 -0.7071 )  


     Atoms inside the unit cell: 

     Cartesian axes

     site n.  atom      mass           positions (alat units)
        1  Ce    140.1160   tau(    1) = (    0.70711    0.70711    0.70711  )
        2  H       1.0079   tau(    2) = (    0.35355    0.35355    0.35355  )
        3  H       1.0079   tau(    3) = (    1.06066    1.06066    1.06066  )
        4  H       1.0079   tau(    4) = (    1.24114    1.24114    1.24114  )
        5  H       1.0079   tau(    5) = (    0.17307    0.17307    0.17307  )
        6  H       1.0079   tau(    6) = (    0.88018    0.88018    1.24114  )
        7  H       1.0079   tau(    7) = (    0.53404    0.53404    0.17307  )
        8  H       1.0079   tau(    8) = (    0.88018    1.24114    0.88018  )
        9  H       1.0079   tau(    9) = (    0.53404    0.17307    0.53404  )
       10  H       1.0079   tau(   10) = (    1.24114    0.88018    0.88018  )
       11  H       1.0079   tau(   11) = (    0.17307    0.53404    0.53404  )

     Computing dynamical matrix for 
                    q = (   0.0000000   0.0000000   0.0000000 )
 
     49 Sym.Ops. (with q -> -q+G )


     G cutoff =  990.8365  (   7731 G-vectors)     FFT grid: ( 64, 64, 64)
     G cutoff =  330.2788  (   1495 G-vectors)  smooth grid: ( 40, 40, 40)

     number of k points=    72  Gaussian smearing, width (Ry)=  0.0200

     PseudoPot. # 1 for Ce read from file:
     /work/home/mayuan/workplace/1.typical_hydride/003.MH10/2.CeH10/250/Tc-666-paw/pp/Ce.paw.z_12.atompaw.wentzcovitch.v1.2.upf
     MD5 check sum: 2241420ff980c77e0c917a2dc8a7e08e
     Pseudo is Projector augmented-wave + core cor, Zval = 12.0
     Generated using ATOMPAW code
     Shape of augmentation charge: BESSEL
     Using radial grid of 1102 points,  8 beta functions with: 
                l(1) =   0
                l(2) =   0
                l(3) =   1
                l(4) =   1
                l(5) =   2
                l(6) =   2
                l(7) =   3
                l(8) =   3
     Q(r) pseudized with 0 coefficients 


     PseudoPot. # 2 for H  read from file:
     /work/home/mayuan/workplace/1.typical_hydride/003.MH10/2.CeH10/250/Tc-666-paw/pp/H.pbe-kjpaw_psl.1.0.0.UPF
     MD5 check sum: 3bb27c602ede137025941d095c9090b7
     Pseudo is Projector augmented-wave, Zval =  1.0
     Generated using 'atomic' code by A. Dal Corso  v.7.1
     Shape of augmentation charge: PSQ
     Using radial grid of  929 points,  2 beta functions with: 
                l(1) =   0
                l(2) =   0
     Q(r) pseudized with 0 coefficients 


     Mode symmetry, O_h (m-3m)  point group:


     Atomic displacements:
     There are   13 irreducible representations

     Representation     1      1 modes -  To be done

     Representation     2      2 modes -  To be done

     Representation     3      3 modes -  To be done

     Representation     4      3 modes -  To be done

     Representation     5      3 modes -  To be done

     Representation     6      3 modes -  To be done

     Representation     7      1 modes -  To be done

     Representation     8      2 modes -  To be done

     Representation     9      3 modes -  To be done

     Representation    10      3 modes -  To be done

     Representation    11      3 modes -  To be done

     Representation    12      3 modes -  To be done

     Representation    13      3 modes -  To be done



     Alpha used in Ewald sum =   2.8000
     PHONON       :      7.06s CPU     13.06s WALL



     Representation #   1 mode #   1

     Self-consistent Calculation
 
     Pert. #  1: Fermi energy shift (Ry) =    -5.5756E-02     1.0340E-24

      iter #   1 total cpu time :    18.2 secs   av.it.:   6.8
      thresh= 1.000E-02 alpha_mix =  0.300 |ddv_scf|^2 =  1.341E-07
 
     Pert. #  1: Fermi energy shift (Ry) =     3.7059E-03     3.3087E-24

      iter #   2 total cpu time :    23.4 secs   av.it.:  14.3
      thresh= 3.662E-05 alpha_mix =  0.300 |ddv_scf|^2 =  2.596E-08
 
     Pert. #  1: Fermi energy shift (Ry) =    -3.3644E-02     7.1086E-26

      iter #   3 total cpu time :    28.0 secs   av.it.:  14.8
      thresh= 1.611E-05 alpha_mix =  0.300 |ddv_scf|^2 =  8.850E-09
 
     Pert. #  1: Fermi energy shift (Ry) =    -2.2572E-02     4.5495E-24

      iter #   4 total cpu time :    33.6 secs   av.it.:  14.9
      thresh= 9.407E-06 alpha_mix =  0.300 |ddv_scf|^2 =  6.057E-11
 
     Pert. #  1: Fermi energy shift (Ry) =    -2.1486E-02     1.2408E-24

      iter #   5 total cpu time :    39.0 secs   av.it.:  15.0
      thresh= 7.783E-07 alpha_mix =  0.300 |ddv_scf|^2 =  1.582E-12
 
     Pert. #  1: Fermi energy shift (Ry) =    -2.1516E-02     1.2408E-24

      iter #   6 total cpu time :    45.5 secs   av.it.:  14.5
      thresh= 1.258E-07 alpha_mix =  0.300 |ddv_scf|^2 =  1.881E-13
 
     Pert. #  1: Fermi energy shift (Ry) =    -2.1404E-02     1.2408E-24

      iter #   7 total cpu time :    51.5 secs   av.it.:  15.1
      thresh= 4.337E-08 alpha_mix =  0.300 |ddv_scf|^2 =  3.072E-15

     End of self-consistent calculation

     Convergence has been achieved 


     Representation #   2 modes #   2   3

     Self-consistent Calculation
 
     Pert. #  1: Fermi energy shift (Ry) =     3.4694E-18     1.3224E-38
     Pert. #  2: Fermi energy shift (Ry) =     3.6863E-18     9.3060E-39

      iter #   1 total cpu time :    62.5 secs   av.it.:   7.2
      thresh= 1.000E-02 alpha_mix =  0.300 |ddv_scf|^2 =  1.167E-08
 
     Pert. #  1: Fermi energy shift (Ry) =    -2.1684E-18    -3.0612E-41
     Pert. #  2: Fermi energy shift (Ry) =     7.9508E-19    -9.5662E-41

      iter #   2 total cpu time :    69.5 secs   av.it.:  15.6
      thresh= 1.080E-05 alpha_mix =  0.300 |ddv_scf|^2 =  3.296E-09
 
     Pert. #  1: Fermi energy shift (Ry) =     3.7586E-18     1.6837E-40
     Pert. #  2: Fermi energy shift (Ry) =    -6.5052E-19     1.0331E-40

      iter #   3 total cpu time :    77.9 secs   av.it.:  16.6
      thresh= 5.741E-06 alpha_mix =  0.300 |ddv_scf|^2 =  2.570E-11
 
     Pert. #  1: Fermi energy shift (Ry) =     1.8070E-18     2.4872E-41
     Pert. #  2: Fermi energy shift (Ry) =     6.7943E-18     6.6963E-42

      iter #   4 total cpu time :    85.4 secs   av.it.:  17.1
      thresh= 5.069E-07 alpha_mix =  0.300 |ddv_scf|^2 =  5.007E-13
 
     Pert. #  1: Fermi energy shift (Ry) =    -5.4933E-18     3.8265E-41
     Pert. #  2: Fermi energy shift (Ry) =    -2.3852E-18    -4.7831E-41

      iter #   5 total cpu time :    93.4 secs   av.it.:  16.1
      thresh= 7.076E-08 alpha_mix =  0.300 |ddv_scf|^2 =  1.497E-13
 
     Pert. #  1: Fermi energy shift (Ry) =    -4.5536E-18     4.9744E-41
     Pert. #  2: Fermi energy shift (Ry) =     8.0954E-18     7.0790E-41

      iter #   6 total cpu time :   101.5 secs   av.it.:  16.3
      thresh= 3.869E-08 alpha_mix =  0.300 |ddv_scf|^2 =  2.397E-16

     End of self-consistent calculation

     Convergence has been achieved 


     Representation #   3 modes #   4   5   6

     Self-consistent Calculation
 
     Pert. #  1: Fermi energy shift (Ry) =    -1.3553E-20    -1.9592E-39
     Pert. #  2: Fermi energy shift (Ry) =     1.8705E-20     2.4336E-39
     Pert. #  3: Fermi energy shift (Ry) =     4.5175E-21     1.0775E-38

      iter #   1 total cpu time :   116.5 secs   av.it.:   5.9
      thresh= 1.000E-02 alpha_mix =  0.300 |ddv_scf|^2 =  6.019E-11
 
     Pert. #  1: Fermi energy shift (Ry) =     8.1315E-20     0.0000E+00
     Pert. #  2: Fermi energy shift (Ry) =     3.5505E-20     6.4123E-42
     Pert. #  3: Fermi energy shift (Ry) =    -1.3553E-20     1.9132E-42

      iter #   2 total cpu time :   127.4 secs   av.it.:  17.2
      thresh= 7.758E-07 alpha_mix =  0.300 |ddv_scf|^2 =  2.978E-11
 
     Pert. #  1: Fermi energy shift (Ry) =     4.9693E-20    -9.5662E-43
     Pert. #  2: Fermi energy shift (Ry) =     1.8882E-20     3.5201E-42
     Pert. #  3: Fermi energy shift (Ry) =     3.6140E-20     3.3482E-42

      iter #   3 total cpu time :   138.0 secs   av.it.:  16.9
      thresh= 5.457E-07 alpha_mix =  0.300 |ddv_scf|^2 =  5.199E-14
 
     Pert. #  1: Fermi energy shift (Ry) =    -1.8070E-20    -4.7831E-43
     Pert. #  2: Fermi energy shift (Ry) =     7.4751E-20     4.7383E-42
     Pert. #  3: Fermi energy shift (Ry) =    -1.8070E-20     2.8699E-42

      iter #   4 total cpu time :   149.0 secs   av.it.:  17.1
      thresh= 2.280E-08 alpha_mix =  0.300 |ddv_scf|^2 =  9.736E-15

     End of self-consistent calculation

     Convergence has been achieved 


     Representation #   4 modes #   7   8   9

     Self-consistent Calculation
 
     Pert. #  1: Fermi energy shift (Ry) =     3.9754E-19     5.8775E-39
     Pert. #  2: Fermi energy shift (Ry) =     3.6140E-20    -1.4694E-38
     Pert. #  3: Fermi energy shift (Ry) =     3.3693E-19    -1.4412E-39

      iter #   1 total cpu time :   165.4 secs   av.it.:   6.8
      thresh= 1.000E-02 alpha_mix =  0.300 |ddv_scf|^2 =  4.743E-09
 
     Pert. #  1: Fermi energy shift (Ry) =    -6.3245E-20    -4.3526E-41
     Pert. #  2: Fermi energy shift (Ry) =    -3.2526E-19    -3.0612E-41
     Pert. #  3: Fermi energy shift (Ry) =     4.1180E-19    -5.1262E-41

      iter #   2 total cpu time :   175.4 secs   av.it.:  16.5
      thresh= 6.887E-06 alpha_mix =  0.300 |ddv_scf|^2 =  8.999E-10
 
     Pert. #  1: Fermi energy shift (Ry) =    -2.7105E-19    -2.9177E-41
     Pert. #  2: Fermi energy shift (Ry) =     3.6140E-20    -1.1479E-41
     Pert. #  3: Fermi energy shift (Ry) =     3.4116E-19    -2.7487E-41

      iter #   3 total cpu time :   185.8 secs   av.it.:  17.0
      thresh= 3.000E-06 alpha_mix =  0.300 |ddv_scf|^2 =  1.099E-11
 
     Pert. #  1: Fermi energy shift (Ry) =     5.1500E-19    -2.4155E-41
     Pert. #  2: Fermi energy shift (Ry) =    -2.8912E-19    -1.3393E-41
     Pert. #  3: Fermi energy shift (Ry) =     6.6657E-19    -6.4985E-42

      iter #   4 total cpu time :   196.2 secs   av.it.:  17.6
      thresh= 3.315E-07 alpha_mix =  0.300 |ddv_scf|^2 =  1.878E-13
 
     Pert. #  1: Fermi energy shift (Ry) =     3.8851E-19    -2.4155E-41
     Pert. #  2: Fermi energy shift (Ry) =    -7.2280E-20    -9.5662E-42
     Pert. #  3: Fermi energy shift (Ry) =     6.3050E-19    -3.1503E-42

      iter #   5 total cpu time :   206.8 secs   av.it.:  16.8
      thresh= 4.334E-08 alpha_mix =  0.300 |ddv_scf|^2 =  4.843E-14
 
     Pert. #  1: Fermi energy shift (Ry) =     9.3061E-19    -1.7458E-41
     Pert. #  2: Fermi energy shift (Ry) =    -1.4456E-19    -1.9132E-42
     Pert. #  3: Fermi energy shift (Ry) =     5.9441E-19    -9.7623E-42

      iter #   6 total cpu time :   217.6 secs   av.it.:  17.6
      thresh= 2.201E-08 alpha_mix =  0.300 |ddv_scf|^2 =  1.121E-15

     End of self-consistent calculation

     Convergence has been achieved 


     Representation #   5 modes #  10  11  12

     Self-consistent Calculation
 
     Pert. #  1: Fermi energy shift (Ry) =     2.7105E-20    -1.5673E-38
     Pert. #  2: Fermi energy shift (Ry) =    -1.3553E-20     9.7958E-40
     Pert. #  3: Fermi energy shift (Ry) =     1.4837E-19     1.9347E-38

      iter #   1 total cpu time :   232.2 secs   av.it.:   6.9
      thresh= 1.000E-02 alpha_mix =  0.300 |ddv_scf|^2 =  2.612E-09
 
     Pert. #  1: Fermi energy shift (Ry) =     9.0350E-21     4.5918E-41
     Pert. #  2: Fermi energy shift (Ry) =    -1.8070E-20    -5.7397E-42
     Pert. #  3: Fermi energy shift (Ry) =     1.0179E-19    -1.2544E-40

      iter #   2 total cpu time :   241.8 secs   av.it.:  16.8
      thresh= 5.110E-06 alpha_mix =  0.300 |ddv_scf|^2 =  5.087E-10
 
     Pert. #  1: Fermi energy shift (Ry) =    -3.6140E-20    -5.1657E-41
     Pert. #  2: Fermi energy shift (Ry) =    -6.7763E-21     2.0567E-41
     Pert. #  3: Fermi energy shift (Ry) =     2.5482E-20    -1.7952E-41

      iter #   3 total cpu time :   251.7 secs   av.it.:  17.4
      thresh= 2.255E-06 alpha_mix =  0.300 |ddv_scf|^2 =  1.026E-11
 
     Pert. #  1: Fermi energy shift (Ry) =    -5.4210E-20    -5.7397E-42
     Pert. #  2: Fermi energy shift (Ry) =     4.7434E-20     1.4349E-41
     Pert. #  3: Fermi energy shift (Ry) =     5.3081E-20    -4.7592E-41

      iter #   4 total cpu time :   261.9 secs   av.it.:  17.9
      thresh= 3.203E-07 alpha_mix =  0.300 |ddv_scf|^2 =  1.012E-13
 
     Pert. #  1: Fermi energy shift (Ry) =     1.8070E-20     3.8265E-42
     Pert. #  2: Fermi energy shift (Ry) =    -5.6469E-20     0.0000E+00
     Pert. #  3: Fermi energy shift (Ry) =     6.2751E-20    -2.4005E-41

      iter #   5 total cpu time :   272.0 secs   av.it.:  17.5
      thresh= 3.182E-08 alpha_mix =  0.300 |ddv_scf|^2 =  2.286E-14
 
     Pert. #  1: Fermi energy shift (Ry) =    -4.0658E-20    -2.8699E-41
     Pert. #  2: Fermi energy shift (Ry) =     2.2588E-21    -1.1479E-41
     Pert. #  3: Fermi energy shift (Ry) =     7.1645E-20    -4.0567E-41

      iter #   6 total cpu time :   283.8 secs   av.it.:  18.0
      thresh= 1.512E-08 alpha_mix =  0.300 |ddv_scf|^2 =  4.461E-16

     End of self-consistent calculation

     Convergence has been achieved 


     Representation #   6 modes #  13  14  15

     Self-consistent Calculation
 
     Pert. #  1: Fermi energy shift (Ry) =    -1.0390E-19    -1.1755E-38
     Pert. #  2: Fermi energy shift (Ry) =     1.8070E-19    -1.5673E-38
     Pert. #  3: Fermi energy shift (Ry) =    -6.0535E-19    -7.3468E-39

      iter #   1 total cpu time :   299.4 secs   av.it.:   6.9
      thresh= 1.000E-02 alpha_mix =  0.300 |ddv_scf|^2 =  4.876E-09
 
     Pert. #  1: Fermi energy shift (Ry) =    -6.3245E-20     1.1360E-41
     Pert. #  2: Fermi energy shift (Ry) =    -7.2280E-20    -1.0045E-41
     Pert. #  3: Fermi energy shift (Ry) =    -4.5175E-19    -3.1090E-42

      iter #   2 total cpu time :   308.9 secs   av.it.:  16.7
      thresh= 6.983E-06 alpha_mix =  0.300 |ddv_scf|^2 =  9.221E-10
 
     Pert. #  1: Fermi energy shift (Ry) =     1.5360E-19    -3.9461E-42
     Pert. #  2: Fermi energy shift (Ry) =    -9.0350E-20    -4.7831E-43
     Pert. #  3: Fermi energy shift (Ry) =    -6.9570E-19    -2.4155E-41

      iter #   3 total cpu time :   319.3 secs   av.it.:  17.4
      thresh= 3.037E-06 alpha_mix =  0.300 |ddv_scf|^2 =  9.464E-12
 
     Pert. #  1: Fermi energy shift (Ry) =    -3.0267E-19    -2.9296E-42
     Pert. #  2: Fermi energy shift (Ry) =     1.4456E-19    -3.1090E-42
     Pert. #  3: Fermi energy shift (Ry) =    -5.5114E-19     5.1418E-42

      iter #   4 total cpu time :   329.1 secs   av.it.:  18.0
      thresh= 3.076E-07 alpha_mix =  0.300 |ddv_scf|^2 =  1.855E-13
 
     Pert. #  1: Fermi energy shift (Ry) =     2.2588E-20    -3.4080E-42
     Pert. #  2: Fermi energy shift (Ry) =     7.2280E-20     2.6307E-42
     Pert. #  3: Fermi energy shift (Ry) =    -4.9693E-19    -3.4677E-42

      iter #   5 total cpu time :   339.2 secs   av.it.:  17.1
      thresh= 4.307E-08 alpha_mix =  0.300 |ddv_scf|^2 =  4.714E-14
 
     Pert. #  1: Fermi energy shift (Ry) =    -4.5175E-20    -7.7725E-43
     Pert. #  2: Fermi energy shift (Ry) =     5.4210E-20     1.4349E-42
     Pert. #  3: Fermi energy shift (Ry) =    -4.6079E-19    -7.0551E-42

      iter #   6 total cpu time :   349.6 secs   av.it.:  18.1
      thresh= 2.171E-08 alpha_mix =  0.300 |ddv_scf|^2 =  1.132E-15

     End of self-consistent calculation

     Convergence has been achieved 


     Representation #   7 mode #  16

     Self-consistent Calculation
 
     Pert. #  1: Fermi energy shift (Ry) =     1.3235E-23     6.6122E-39

      iter #   1 total cpu time :   359.1 secs   av.it.:   6.3
      thresh= 1.000E-02 alpha_mix =  0.300 |ddv_scf|^2 =  6.880E-08
 
     Pert. #  1: Fermi energy shift (Ry) =    -4.1359E-25    -5.5101E-40

      iter #   2 total cpu time :   363.4 secs   av.it.:  13.0
      thresh= 2.623E-05 alpha_mix =  0.300 |ddv_scf|^2 =  1.201E-08
 
     Pert. #  1: Fermi energy shift (Ry) =     7.5394E-27     9.5662E-42

      iter #   3 total cpu time :   367.8 secs   av.it.:  14.0
      thresh= 1.096E-05 alpha_mix =  0.300 |ddv_scf|^2 =  7.376E-11
 
     Pert. #  1: Fermi energy shift (Ry) =    -2.2403E-25    -6.8877E-41

      iter #   4 total cpu time :   372.0 secs   av.it.:  13.1
      thresh= 8.588E-07 alpha_mix =  0.300 |ddv_scf|^2 =  1.291E-12
 
     Pert. #  1: Fermi energy shift (Ry) =    -1.5510E-25     6.8877E-41

      iter #   5 total cpu time :   376.9 secs   av.it.:  13.6
      thresh= 1.136E-07 alpha_mix =  0.300 |ddv_scf|^2 =  3.932E-14
 
     Pert. #  1: Fermi energy shift (Ry) =    -2.2403E-25    -4.3048E-42

      iter #   6 total cpu time :   380.9 secs   av.it.:  14.5
      thresh= 1.983E-08 alpha_mix =  0.300 |ddv_scf|^2 =  6.590E-16

     End of self-consistent calculation

     Convergence has been achieved 


     Representation #   8 modes #  17  18

     Self-consistent Calculation
 
     Pert. #  1: Fermi energy shift (Ry) =     0.0000E+00    -1.8808E-37
     Pert. #  2: Fermi energy shift (Ry) =    -8.8233E-23    -5.6424E-37

      iter #   1 total cpu time :   391.1 secs   av.it.:   5.4
      thresh= 1.000E-02 alpha_mix =  0.300 |ddv_scf|^2 =  1.322E-10
 
     Pert. #  1: Fermi energy shift (Ry) =    -6.2039E-25    -3.8265E-41
     Pert. #  2: Fermi energy shift (Ry) =    -3.4466E-25    -4.9744E-41

      iter #   2 total cpu time :   398.7 secs   av.it.:  15.9
      thresh= 1.150E-06 alpha_mix =  0.300 |ddv_scf|^2 =  6.598E-11
 
     Pert. #  1: Fermi energy shift (Ry) =    -4.8252E-25    -1.2245E-40
     Pert. #  2: Fermi energy shift (Ry) =    -1.7233E-26    -4.5918E-40

      iter #   3 total cpu time :   405.7 secs   av.it.:  15.2
      thresh= 8.123E-07 alpha_mix =  0.300 |ddv_scf|^2 =  5.832E-14
 
     Pert. #  1: Fermi energy shift (Ry) =     3.4466E-26    -1.7219E-41
     Pert. #  2: Fermi energy shift (Ry) =    -5.9454E-25    -2.1046E-41

      iter #   4 total cpu time :   412.9 secs   av.it.:  14.9
      thresh= 2.415E-08 alpha_mix =  0.300 |ddv_scf|^2 =  1.353E-14
 
     Pert. #  1: Fermi energy shift (Ry) =    -5.6869E-25    -2.1046E-41
     Pert. #  2: Fermi energy shift (Ry) =    -2.2403E-25    -2.1046E-41

      iter #   5 total cpu time :   420.0 secs   av.it.:  15.1
      thresh= 1.163E-08 alpha_mix =  0.300 |ddv_scf|^2 =  2.314E-17

     End of self-consistent calculation

     Convergence has been achieved 


     Representation #   9 modes #  19  20  21

     Self-consistent Calculation
 
     Pert. #  1: Fermi energy shift (Ry) =    -3.4466E-24    -3.6832E-37
     Pert. #  2: Fermi energy shift (Ry) =    -4.1359E-24    -5.3289E-37
     Pert. #  3: Fermi energy shift (Ry) =    -2.3437E-24     4.7020E-38

      iter #   1 total cpu time :   434.1 secs   av.it.:   6.6
      thresh= 1.000E-02 alpha_mix =  0.300 |ddv_scf|^2 =  1.510E-09
 
     Pert. #  1: Fermi energy shift (Ry) =     3.3604E-25     6.1224E-41
     Pert. #  2: Fermi energy shift (Ry) =    -1.0340E-25     4.8115E-41
     Pert. #  3: Fermi energy shift (Ry) =     1.1201E-25    -1.8367E-40

      iter #   2 total cpu time :   443.7 secs   av.it.:  16.9
      thresh= 3.886E-06 alpha_mix =  0.300 |ddv_scf|^2 =  4.037E-10
 
     Pert. #  1: Fermi energy shift (Ry) =     2.9296E-25     6.1224E-41
     Pert. #  2: Fermi energy shift (Ry) =     5.1699E-26     4.8115E-41
     Pert. #  3: Fermi energy shift (Ry) =     1.7233E-26    -1.8367E-40

      iter #   3 total cpu time :   453.7 secs   av.it.:  17.5
      thresh= 2.009E-06 alpha_mix =  0.300 |ddv_scf|^2 =  1.212E-11
 
     Pert. #  1: Fermi energy shift (Ry) =     8.6165E-27     1.7984E-40
     Pert. #  2: Fermi energy shift (Ry) =    -1.8956E-25     1.5306E-41
     Pert. #  3: Fermi energy shift (Ry) =     1.6371E-25    -1.1479E-40

      iter #   4 total cpu time :   463.5 secs   av.it.:  17.8
      thresh= 3.482E-07 alpha_mix =  0.300 |ddv_scf|^2 =  3.196E-13
 
     Pert. #  1: Fermi energy shift (Ry) =    -1.2925E-25     8.8009E-41
     Pert. #  2: Fermi energy shift (Ry) =     0.0000E+00    -8.8009E-41
     Pert. #  3: Fermi energy shift (Ry) =    -3.4466E-26     8.4183E-41

      iter #   5 total cpu time :   473.7 secs   av.it.:  16.8
      thresh= 5.653E-08 alpha_mix =  0.300 |ddv_scf|^2 =  8.846E-14
 
     Pert. #  1: Fermi energy shift (Ry) =    -3.2743E-25     3.9413E-40
     Pert. #  2: Fermi energy shift (Ry) =    -1.8956E-25    -6.5050E-41
     Pert. #  3: Fermi energy shift (Ry) =    -1.7233E-26     1.3010E-40

      iter #   6 total cpu time :   484.0 secs   av.it.:  17.5
      thresh= 2.974E-08 alpha_mix =  0.300 |ddv_scf|^2 =  1.057E-14
 
     Pert. #  1: Fermi energy shift (Ry) =    -2.4126E-25     1.4923E-40
     Pert. #  2: Fermi energy shift (Ry) =    -1.3786E-25    -7.6530E-42
     Pert. #  3: Fermi energy shift (Ry) =     3.4466E-26    -2.2959E-41

      iter #   7 total cpu time :   493.9 secs   av.it.:  17.7
      thresh= 1.028E-08 alpha_mix =  0.300 |ddv_scf|^2 =  3.032E-17

     End of self-consistent calculation

     Convergence has been achieved 


     Representation #  10 modes #  22  23  24

     Self-consistent Calculation
 
     Pert. #  1: Fermi energy shift (Ry) =     6.4623E-25    -3.7616E-37
     Pert. #  2: Fermi energy shift (Ry) =     2.7896E-24    -2.1943E-37
     Pert. #  3: Fermi energy shift (Ry) =    -1.0453E-24    -2.3902E-37

      iter #   1 total cpu time :   506.2 secs   av.it.:   6.4
      thresh= 1.000E-02 alpha_mix =  0.300 |ddv_scf|^2 =  4.821E-10
 
     Pert. #  1: Fermi energy shift (Ry) =    -8.6165E-27    -2.2959E-40
     Pert. #  2: Fermi energy shift (Ry) =     1.4648E-25     1.0714E-40
     Pert. #  3: Fermi energy shift (Ry) =    -3.8774E-26    -4.0656E-41

      iter #   2 total cpu time :   516.4 secs   av.it.:  17.3
      thresh= 2.196E-06 alpha_mix =  0.300 |ddv_scf|^2 =  1.449E-10
 
     Pert. #  1: Fermi energy shift (Ry) =     1.9818E-25     1.3010E-40
     Pert. #  2: Fermi energy shift (Ry) =     6.0315E-26     6.1224E-41
     Pert. #  3: Fermi energy shift (Ry) =    -9.4781E-26    -2.0854E-40

      iter #   3 total cpu time :   526.4 secs   av.it.:  17.6
      thresh= 1.204E-06 alpha_mix =  0.300 |ddv_scf|^2 =  1.406E-11
 
     Pert. #  1: Fermi energy shift (Ry) =    -7.3240E-26     5.5101E-40
     Pert. #  2: Fermi energy shift (Ry) =     8.6165E-27    -7.6530E-41
     Pert. #  3: Fermi energy shift (Ry) =     2.1541E-26    -5.8736E-40

      iter #   4 total cpu time :   536.9 secs   av.it.:  18.0
      thresh= 3.750E-07 alpha_mix =  0.300 |ddv_scf|^2 =  1.850E-13
 
     Pert. #  1: Fermi energy shift (Ry) =    -4.7391E-26     9.1835E-40
     Pert. #  2: Fermi energy shift (Ry) =    -2.5849E-26    -7.6530E-41
     Pert. #  3: Fermi energy shift (Ry) =     1.0771E-27    -3.6352E-41

      iter #   5 total cpu time :   547.5 secs   av.it.:  17.8
      thresh= 4.301E-08 alpha_mix =  0.300 |ddv_scf|^2 =  4.480E-14
 
     Pert. #  1: Fermi energy shift (Ry) =    -6.8932E-26     8.5713E-40
     Pert. #  2: Fermi energy shift (Ry) =    -1.8095E-25    -1.0714E-40
     Pert. #  3: Fermi energy shift (Ry) =    -1.1094E-25    -1.1288E-40

      iter #   6 total cpu time :   558.0 secs   av.it.:  18.1
      thresh= 2.117E-08 alpha_mix =  0.300 |ddv_scf|^2 =  5.271E-16

     End of self-consistent calculation

     Convergence has been achieved 


     Representation #  11 modes #  25  26  27

     Self-consistent Calculation
 
     Pert. #  1: Fermi energy shift (Ry) =    -1.3786E-25    -6.8962E-37
     Pert. #  2: Fermi energy shift (Ry) =    -1.6544E-24    -6.1713E-37
     Pert. #  3: Fermi energy shift (Ry) =    -2.7573E-24    -1.1912E-36

      iter #   1 total cpu time :   572.8 secs   av.it.:  10.2
      thresh= 1.000E-02 alpha_mix =  0.300 |ddv_scf|^2 =  1.852E-07
 
     Pert. #  1: Fermi energy shift (Ry) =    -3.4466E-24    -7.3468E-39
     Pert. #  2: Fermi energy shift (Ry) =    -3.3777E-24     1.4694E-38
     Pert. #  3: Fermi energy shift (Ry) =    -6.2039E-25    -7.8366E-39

      iter #   2 total cpu time :   582.8 secs   av.it.:  16.7
      thresh= 4.304E-05 alpha_mix =  0.300 |ddv_scf|^2 =  2.826E-08
 
     Pert. #  1: Fermi energy shift (Ry) =    -3.1019E-25    -9.0611E-39
     Pert. #  2: Fermi energy shift (Ry) =     0.0000E+00     3.9183E-39
     Pert. #  3: Fermi energy shift (Ry) =     6.8932E-25    -4.8979E-39

      iter #   3 total cpu time :   594.4 secs   av.it.:  17.2
      thresh= 1.681E-05 alpha_mix =  0.300 |ddv_scf|^2 =  1.637E-10
 
     Pert. #  1: Fermi energy shift (Ry) =     1.8612E-24     7.4693E-39
     Pert. #  2: Fermi energy shift (Ry) =    -2.4815E-24     3.5510E-39
     Pert. #  3: Fermi energy shift (Ry) =     3.5155E-24     0.0000E+00

      iter #   4 total cpu time :   605.0 secs   av.it.:  17.7
      thresh= 1.279E-06 alpha_mix =  0.300 |ddv_scf|^2 =  1.060E-11
 
     Pert. #  1: Fermi energy shift (Ry) =    -6.5485E-25     9.9795E-39
     Pert. #  2: Fermi energy shift (Ry) =     2.3437E-24    -1.7143E-39
     Pert. #  3: Fermi energy shift (Ry) =     1.3786E-24     4.8979E-39

      iter #   5 total cpu time :   614.6 secs   av.it.:  17.1
      thresh= 3.256E-07 alpha_mix =  0.300 |ddv_scf|^2 =  1.746E-12
 
     Pert. #  1: Fermi energy shift (Ry) =    -2.8607E-24     8.0203E-39
     Pert. #  2: Fermi energy shift (Ry) =     2.7573E-24    -7.3468E-40
     Pert. #  3: Fermi energy shift (Ry) =     4.1359E-25    -1.4694E-39

      iter #   6 total cpu time :   624.3 secs   av.it.:  17.8
      thresh= 1.321E-07 alpha_mix =  0.300 |ddv_scf|^2 =  3.146E-14
 
     Pert. #  1: Fermi energy shift (Ry) =    -6.8932E-25     8.0203E-39
     Pert. #  2: Fermi energy shift (Ry) =    -3.4466E-24    -7.3468E-40
     Pert. #  3: Fermi energy shift (Ry) =     1.1029E-24    -1.4694E-39

      iter #   7 total cpu time :   633.9 secs   av.it.:  17.9
      thresh= 1.774E-08 alpha_mix =  0.300 |ddv_scf|^2 =  1.979E-16

     End of self-consistent calculation

     Convergence has been achieved 


     Representation #  12 modes #  28  29  30

     Self-consistent Calculation
 
     Pert. #  1: Fermi energy shift (Ry) =    -6.4796E-24    -4.7647E-36
     Pert. #  2: Fermi energy shift (Ry) =    -4.8942E-24    -6.2693E-37
     Pert. #  3: Fermi energy shift (Ry) =    -3.4466E-26     2.0689E-36

      iter #   1 total cpu time :   648.8 secs   av.it.:   7.3
      thresh= 1.000E-02 alpha_mix =  0.300 |ddv_scf|^2 =  8.752E-09
 
     Pert. #  1: Fermi energy shift (Ry) =     1.6544E-24    -3.9183E-39
     Pert. #  2: Fermi energy shift (Ry) =    -3.4466E-25     1.7143E-39
     Pert. #  3: Fermi energy shift (Ry) =    -2.5849E-25     2.3877E-39

      iter #   2 total cpu time :   658.6 secs   av.it.:  16.9
      thresh= 9.355E-06 alpha_mix =  0.300 |ddv_scf|^2 =  1.397E-09
 
     Pert. #  1: Fermi energy shift (Ry) =     1.2408E-24     1.2245E-39
     Pert. #  2: Fermi energy shift (Ry) =    -5.5145E-25     1.8367E-39
     Pert. #  3: Fermi energy shift (Ry) =    -6.8932E-26     2.5102E-39

      iter #   3 total cpu time :   668.6 secs   av.it.:  17.6
      thresh= 3.738E-06 alpha_mix =  0.300 |ddv_scf|^2 =  2.359E-11
 
     Pert. #  1: Fermi energy shift (Ry) =     1.2408E-24    -2.0816E-39
     Pert. #  2: Fermi energy shift (Ry) =     1.3786E-24     4.8979E-40
     Pert. #  3: Fermi energy shift (Ry) =    -1.9129E-24     2.1428E-39

      iter #   4 total cpu time :   678.5 secs   av.it.:  18.1
      thresh= 4.857E-07 alpha_mix =  0.300 |ddv_scf|^2 =  4.274E-13
 
     Pert. #  1: Fermi energy shift (Ry) =    -2.7573E-25    -2.4489E-40
     Pert. #  2: Fermi energy shift (Ry) =     1.2408E-24     1.2245E-40
     Pert. #  3: Fermi energy shift (Ry) =    -1.6716E-24     4.7448E-40

      iter #   5 total cpu time :   689.7 secs   av.it.:  17.2
      thresh= 6.537E-08 alpha_mix =  0.300 |ddv_scf|^2 =  1.068E-13
 
     Pert. #  1: Fermi energy shift (Ry) =     4.1359E-25    -1.1020E-39
     Pert. #  2: Fermi energy shift (Ry) =     4.8252E-25    -3.0612E-40
     Pert. #  3: Fermi energy shift (Ry) =    -1.3614E-24    -2.1428E-40

      iter #   6 total cpu time :   699.8 secs   av.it.:  17.6
      thresh= 3.268E-08 alpha_mix =  0.300 |ddv_scf|^2 =  9.477E-15

     End of self-consistent calculation

     Convergence has been achieved 


     Representation #  13 modes #  31  32  33

     Self-consistent Calculation
 
     Pert. #  1: Fermi energy shift (Ry) =     0.0000E+00    -1.1285E-36
     Pert. #  2: Fermi energy shift (Ry) =     6.6174E-24     2.7585E-36
     Pert. #  3: Fermi energy shift (Ry) =    -1.7647E-23    -6.2693E-38

      iter #   1 total cpu time :   713.8 secs   av.it.:   6.6
      thresh= 1.000E-02 alpha_mix =  0.300 |ddv_scf|^2 =  3.172E-10
 
     Pert. #  1: Fermi energy shift (Ry) =     1.8956E-25     3.8265E-42
     Pert. #  2: Fermi energy shift (Ry) =     3.4466E-25    -2.2959E-41
     Pert. #  3: Fermi energy shift (Ry) =     6.8932E-25     1.0905E-40

      iter #   2 total cpu time :   723.2 secs   av.it.:  16.8
      thresh= 1.781E-06 alpha_mix =  0.300 |ddv_scf|^2 =  1.399E-10
 
     Pert. #  1: Fermi energy shift (Ry) =    -3.9636E-25    -4.5918E-41
     Pert. #  2: Fermi energy shift (Ry) =    -3.4466E-25     1.5306E-40
     Pert. #  3: Fermi energy shift (Ry) =     6.2039E-25     5.4336E-40

      iter #   3 total cpu time :   732.9 secs   av.it.:  17.6
      thresh= 1.183E-06 alpha_mix =  0.300 |ddv_scf|^2 =  7.013E-13
 
     Pert. #  1: Fermi energy shift (Ry) =    -3.1019E-25    -3.2908E-40
     Pert. #  2: Fermi energy shift (Ry) =     8.9611E-25     7.6530E-41
     Pert. #  3: Fermi energy shift (Ry) =     1.2925E-24     2.4069E-39

      iter #   4 total cpu time :   743.0 secs   av.it.:  17.0
      thresh= 8.374E-08 alpha_mix =  0.300 |ddv_scf|^2 =  3.023E-14
 
     Pert. #  1: Fermi energy shift (Ry) =    -3.1019E-25     1.6071E-40
     Pert. #  2: Fermi energy shift (Ry) =     2.0680E-25    -9.6427E-40
     Pert. #  3: Fermi energy shift (Ry) =     6.1177E-25     1.1518E-39

      iter #   5 total cpu time :   753.0 secs   av.it.:  17.3
      thresh= 1.739E-08 alpha_mix =  0.300 |ddv_scf|^2 =  1.481E-15

     End of self-consistent calculation

     Convergence has been achieved 
 
     Number of q in the star =    1
     List of q in the star:
          1   0.000000000   0.000000000   0.000000000

     Diagonalizing the dynamical matrix

     q = (    0.000000000   0.000000000   0.000000000 ) 

 **************************************************************************
     freq (    1) =       0.442678 [THz] =      14.766150 [cm-1]
     freq (    2) =       0.442678 [THz] =      14.766150 [cm-1]
     freq (    3) =       0.442678 [THz] =      14.766150 [cm-1]
     freq (    4) =      24.211393 [THz] =     807.605140 [cm-1]
     freq (    5) =      24.211393 [THz] =     807.605140 [cm-1]
     freq (    6) =      24.211393 [THz] =     807.605140 [cm-1]
     freq (    7) =      28.356986 [THz] =     945.887244 [cm-1]
     freq (    8) =      28.356986 [THz] =     945.887244 [cm-1]
     freq (    9) =      28.356986 [THz] =     945.887244 [cm-1]
     freq (   10) =      39.217583 [THz] =    1308.157769 [cm-1]
     freq (   11) =      39.217583 [THz] =    1308.157769 [cm-1]
     freq (   12) =      39.217583 [THz] =    1308.157769 [cm-1]
     freq (   13) =      41.074186 [THz] =    1370.087378 [cm-1]
     freq (   14) =      41.074186 [THz] =    1370.087378 [cm-1]
     freq (   15) =      41.074186 [THz] =    1370.087378 [cm-1]
     freq (   16) =      41.546440 [THz] =    1385.840073 [cm-1]
     freq (   17) =      41.546440 [THz] =    1385.840073 [cm-1]
     freq (   18) =      41.546440 [THz] =    1385.840073 [cm-1]
     freq (   19) =      42.251175 [THz] =    1409.347499 [cm-1]
     freq (   20) =      42.251175 [THz] =    1409.347499 [cm-1]
     freq (   21) =      42.251175 [THz] =    1409.347499 [cm-1]
     freq (   22) =      42.517892 [THz] =    1418.244202 [cm-1]
     freq (   23) =      42.517892 [THz] =    1418.244202 [cm-1]
     freq (   24) =      49.274054 [THz] =    1643.605532 [cm-1]
     freq (   25) =      49.274054 [THz] =    1643.605532 [cm-1]
     freq (   26) =      54.094106 [THz] =    1804.385163 [cm-1]
     freq (   27) =      54.094106 [THz] =    1804.385163 [cm-1]
     freq (   28) =      54.094106 [THz] =    1804.385163 [cm-1]
     freq (   29) =      54.927990 [THz] =    1832.200524 [cm-1]
     freq (   30) =      54.927990 [THz] =    1832.200524 [cm-1]
     freq (   31) =      54.927990 [THz] =    1832.200524 [cm-1]
     freq (   32) =      60.140702 [THz] =    2006.077874 [cm-1]
     freq (   33) =      69.901114 [THz] =    2331.650170 [cm-1]
 **************************************************************************

     Mode symmetry, O_h (m-3m)  point group:

     freq (   1-   3) =         14.8  [cm-1]   --> T_1u G_15  G_4- I  
     freq (   4-   6) =        807.6  [cm-1]   --> T_2g G_25' G_5+ R  
     freq (   7-   9) =        945.9  [cm-1]   --> T_1u G_15  G_4- I  
     freq (  10-  12) =       1308.2  [cm-1]   --> T_1g G_15' G_4+    
     freq (  13-  15) =       1370.1  [cm-1]   --> T_2g G_25' G_5+ R  
     freq (  16-  18) =       1385.8  [cm-1]   --> T_1u G_15  G_4- I  
     freq (  19-  21) =       1409.3  [cm-1]   --> T_2u G_25  G_5-    
     freq (  22-  23) =       1418.2  [cm-1]   --> E_u  G_12' G_3-    
     freq (  24-  25) =       1643.6  [cm-1]   --> E_g  G_12  G_3+ R  
     freq (  26-  28) =       1804.4  [cm-1]   --> T_2g G_25' G_5+ R  
     freq (  29-  31) =       1832.2  [cm-1]   --> T_1u G_15  G_4- I  
     freq (  32-  32) =       2006.1  [cm-1]   --> A_2u G_2'  G_2-    
     freq (  33-  33) =       2331.7  [cm-1]   --> A_1g G_1   G_1+ R  
     Electron-phonon interaction  ...

     Gaussian Broadening:   0.005 Ry, ngauss=   0
     DOS =  4.794684 states/spin/Ry/Unit Cell at Ef= 22.110855 eV
     lambda(    1)=  0.0000   gamma=    0.00 GHz
     lambda(    2)=  0.0000   gamma=    0.00 GHz
     lambda(    3)=  0.0000   gamma=    0.00 GHz
     lambda(    4)=  0.5344   gamma= 1434.29 GHz
     lambda(    5)=  0.5484   gamma= 1472.00 GHz
     lambda(    6)=  0.5339   gamma= 1432.84 GHz
     lambda(    7)=  0.0000   gamma=    0.01 GHz
     lambda(    8)=  0.0000   gamma=    0.01 GHz
     lambda(    9)=  0.0000   gamma=    0.01 GHz
     lambda(   10)=  0.0329   gamma=  231.68 GHz
     lambda(   11)=  0.0329   gamma=  231.61 GHz
     lambda(   12)=  0.0333   gamma=  234.68 GHz
     lambda(   13)=  0.1736   gamma= 1341.19 GHz
     lambda(   14)=  0.1736   gamma= 1341.22 GHz
     lambda(   15)=  0.1741   gamma= 1345.22 GHz
     lambda(   16)=  0.0000   gamma=    0.01 GHz
     lambda(   17)=  0.0000   gamma=    0.01 GHz
     lambda(   18)=  0.0000   gamma=    0.01 GHz
     lambda(   19)=  0.0000   gamma=    0.14 GHz
     lambda(   20)=  0.0000   gamma=    0.11 GHz
     lambda(   21)=  0.0000   gamma=    0.16 GHz
     lambda(   22)=  0.0004   gamma=    2.92 GHz
     lambda(   23)=  0.0004   gamma=    2.92 GHz
     lambda(   24)=  1.0561   gamma=11740.25 GHz
     lambda(   25)=  1.0561   gamma=11740.25 GHz
     lambda(   26)=  0.3050   gamma= 4085.97 GHz
     lambda(   27)=  0.2966   gamma= 3974.19 GHz
     lambda(   28)=  0.2988   gamma= 4002.63 GHz
     lambda(   29)=  0.0000   gamma=    0.05 GHz
     lambda(   30)=  0.0000   gamma=    0.06 GHz
     lambda(   31)=  0.0000   gamma=    0.06 GHz
     lambda(   32)=  0.0000   gamma=    0.00 GHz
     lambda(   33)=  0.2629   gamma= 5882.49 GHz
     Gaussian Broadening:   0.010 Ry, ngauss=   0
     DOS =  4.491154 states/spin/Ry/Unit Cell at Ef= 22.118081 eV
     lambda(    1)=  0.0000   gamma=    0.00 GHz
     lambda(    2)=  0.0000   gamma=    0.00 GHz
     lambda(    3)=  0.0000   gamma=    0.00 GHz
     lambda(    4)=  0.2848   gamma=  716.04 GHz
     lambda(    5)=  0.2907   gamma=  730.78 GHz
     lambda(    6)=  0.2846   gamma=  715.47 GHz
     lambda(    7)=  0.0009   gamma=    2.97 GHz
     lambda(    8)=  0.0009   gamma=    3.07 GHz
     lambda(    9)=  0.0009   gamma=    3.06 GHz
     lambda(   10)=  0.0165   gamma=  108.69 GHz
     lambda(   11)=  0.0165   gamma=  108.60 GHz
     lambda(   12)=  0.0170   gamma=  112.29 GHz
     lambda(   13)=  0.0927   gamma=  670.62 GHz
     lambda(   14)=  0.0927   gamma=  670.57 GHz
     lambda(   15)=  0.0919   gamma=  664.87 GHz
     lambda(   16)=  0.0002   gamma=    1.15 GHz
     lambda(   17)=  0.0002   gamma=    1.15 GHz
     lambda(   18)=  0.0002   gamma=    1.15 GHz
     lambda(   19)=  0.0037   gamma=   28.41 GHz
     lambda(   20)=  0.0033   gamma=   25.59 GHz
     lambda(   21)=  0.0039   gamma=   30.21 GHz
     lambda(   22)=  0.0006   gamma=    4.74 GHz
     lambda(   23)=  0.0006   gamma=    4.74 GHz
     lambda(   24)=  0.5565   gamma= 5794.24 GHz
     lambda(   25)=  0.5565   gamma= 5794.24 GHz
     lambda(   26)=  0.1593   gamma= 1999.60 GHz
     lambda(   27)=  0.1551   gamma= 1945.98 GHz
     lambda(   28)=  0.1561   gamma= 1959.62 GHz
     lambda(   29)=  0.0008   gamma=   10.11 GHz
     lambda(   30)=  0.0008   gamma=   10.99 GHz
     lambda(   31)=  0.0009   gamma=   11.30 GHz
     lambda(   32)=  0.0000   gamma=    0.07 GHz
     lambda(   33)=  0.2848   gamma= 5968.53 GHz
     Gaussian Broadening:   0.015 Ry, ngauss=   0
     DOS =  4.448291 states/spin/Ry/Unit Cell at Ef= 22.124358 eV
     lambda(    1)=  0.0000   gamma=    0.01 GHz
     lambda(    2)=  0.0000   gamma=    0.01 GHz
     lambda(    3)=  0.0000   gamma=    0.01 GHz
     lambda(    4)=  0.1861   gamma=  463.44 GHz
     lambda(    5)=  0.1889   gamma=  470.42 GHz
     lambda(    6)=  0.1860   gamma=  463.17 GHz
     lambda(    7)=  0.0027   gamma=    9.19 GHz
     lambda(    8)=  0.0028   gamma=    9.43 GHz
     lambda(    9)=  0.0028   gamma=    9.40 GHz
     lambda(   10)=  0.0108   gamma=   70.80 GHz
     lambda(   11)=  0.0108   gamma=   70.75 GHz
     lambda(   12)=  0.0112   gamma=   73.13 GHz
     lambda(   13)=  0.0637   gamma=  456.80 GHz
     lambda(   14)=  0.0637   gamma=  456.76 GHz
     lambda(   15)=  0.0630   gamma=  451.27 GHz
     lambda(   16)=  0.0003   gamma=    2.37 GHz
     lambda(   17)=  0.0003   gamma=    2.42 GHz
     lambda(   18)=  0.0003   gamma=    2.37 GHz
     lambda(   19)=  0.0107   gamma=   81.15 GHz
     lambda(   20)=  0.0100   gamma=   76.06 GHz
     lambda(   21)=  0.0111   gamma=   84.40 GHz
     lambda(   22)=  0.0007   gamma=    5.28 GHz
     lambda(   23)=  0.0007   gamma=    5.28 GHz
     lambda(   24)=  0.3655   gamma= 3769.38 GHz
     lambda(   25)=  0.3655   gamma= 3769.38 GHz
     lambda(   26)=  0.1033   gamma= 1284.25 GHz
     lambda(   27)=  0.1008   gamma= 1252.56 GHz
     lambda(   28)=  0.1014   gamma= 1260.63 GHz
     lambda(   29)=  0.0022   gamma=   28.47 GHz
     lambda(   30)=  0.0023   gamma=   30.05 GHz
     lambda(   31)=  0.0024   gamma=   30.60 GHz
     lambda(   32)=  0.0000   gamma=    0.18 GHz
     lambda(   33)=  0.2324   gamma= 4823.92 GHz
     Gaussian Broadening:   0.020 Ry, ngauss=   0
     DOS =  4.528357 states/spin/Ry/Unit Cell at Ef= 22.128042 eV
     lambda(    1)=  0.0000   gamma=    0.02 GHz
     lambda(    2)=  0.0000   gamma=    0.02 GHz
     lambda(    3)=  0.0000   gamma=    0.02 GHz
     lambda(    4)=  0.1382   gamma=  350.40 GHz
     lambda(    5)=  0.1399   gamma=  354.73 GHz
     lambda(    6)=  0.1382   gamma=  350.23 GHz
     lambda(    7)=  0.0038   gamma=   13.38 GHz
     lambda(    8)=  0.0039   gamma=   13.66 GHz
     lambda(    9)=  0.0039   gamma=   13.63 GHz
     lambda(   10)=  0.0087   gamma=   58.19 GHz
     lambda(   11)=  0.0087   gamma=   58.14 GHz
     lambda(   12)=  0.0091   gamma=   60.20 GHz
     lambda(   13)=  0.0483   gamma=  352.65 GHz
     lambda(   14)=  0.0483   gamma=  352.61 GHz
     lambda(   15)=  0.0476   gamma=  347.47 GHz
     lambda(   16)=  0.0006   gamma=    4.52 GHz
     lambda(   17)=  0.0006   gamma=    4.66 GHz
     lambda(   18)=  0.0006   gamma=    4.53 GHz
     lambda(   19)=  0.0149   gamma=  114.94 GHz
     lambda(   20)=  0.0142   gamma=  109.47 GHz
     lambda(   21)=  0.0153   gamma=  118.45 GHz
     lambda(   22)=  0.0007   gamma=    5.76 GHz
     lambda(   23)=  0.0007   gamma=    5.76 GHz
     lambda(   24)=  0.2692   gamma= 2826.07 GHz
     lambda(   25)=  0.2692   gamma= 2826.07 GHz
     lambda(   26)=  0.0772   gamma=  976.36 GHz
     lambda(   27)=  0.0754   gamma=  954.42 GHz
     lambda(   28)=  0.0759   gamma=  960.00 GHz
     lambda(   29)=  0.0031   gamma=   40.52 GHz
     lambda(   30)=  0.0032   gamma=   42.17 GHz
     lambda(   31)=  0.0033   gamma=   42.76 GHz
     lambda(   32)=  0.0000   gamma=    0.44 GHz
     lambda(   33)=  0.1847   gamma= 3902.19 GHz
     Gaussian Broadening:   0.025 Ry, ngauss=   0
     DOS =  4.634996 states/spin/Ry/Unit Cell at Ef= 22.128678 eV
     lambda(    1)=  0.0000   gamma=    0.03 GHz
     lambda(    2)=  0.0000   gamma=    0.03 GHz
     lambda(    3)=  0.0000   gamma=    0.02 GHz
     lambda(    4)=  0.1116   gamma=  289.57 GHz
     lambda(    5)=  0.1129   gamma=  292.86 GHz
     lambda(    6)=  0.1116   gamma=  289.44 GHz
     lambda(    7)=  0.0046   gamma=   16.33 GHz
     lambda(    8)=  0.0047   gamma=   16.59 GHz
     lambda(    9)=  0.0047   gamma=   16.56 GHz
     lambda(   10)=  0.0080   gamma=   54.59 GHz
     lambda(   11)=  0.0080   gamma=   54.55 GHz
     lambda(   12)=  0.0083   gamma=   56.38 GHz
     lambda(   13)=  0.0394   gamma=  294.24 GHz
     lambda(   14)=  0.0394   gamma=  294.20 GHz
     lambda(   15)=  0.0387   gamma=  288.97 GHz
     lambda(   16)=  0.0011   gamma=    8.24 GHz
     lambda(   17)=  0.0011   gamma=    8.48 GHz
     lambda(   18)=  0.0011   gamma=    8.25 GHz
     lambda(   19)=  0.0171   gamma=  135.42 GHz
     lambda(   20)=  0.0165   gamma=  130.07 GHz
     lambda(   21)=  0.0176   gamma=  138.84 GHz
     lambda(   22)=  0.0008   gamma=    6.50 GHz
     lambda(   23)=  0.0008   gamma=    6.50 GHz
     lambda(   24)=  0.2125   gamma= 2283.22 GHz
     lambda(   25)=  0.2125   gamma= 2283.14 GHz
     lambda(   26)=  0.0629   gamma=  814.11 GHz
     lambda(   27)=  0.0616   gamma=  797.40 GHz
     lambda(   28)=  0.0619   gamma=  801.65 GHz
     lambda(   29)=  0.0037   gamma=   48.84 GHz
     lambda(   30)=  0.0038   gamma=   50.50 GHz
     lambda(   31)=  0.0038   gamma=   51.08 GHz
     lambda(   32)=  0.0001   gamma=    1.18 GHz
     lambda(   33)=  0.1480   gamma= 3201.56 GHz
     Gaussian Broadening:   0.030 Ry, ngauss=   0
     DOS =  4.755068 states/spin/Ry/Unit Cell at Ef= 22.126761 eV
     lambda(    1)=  0.0000   gamma=    0.04 GHz
     lambda(    2)=  0.0000   gamma=    0.04 GHz
     lambda(    3)=  0.0000   gamma=    0.04 GHz
     lambda(    4)=  0.0941   gamma=  250.46 GHz
     lambda(    5)=  0.0951   gamma=  253.09 GHz
     lambda(    6)=  0.0941   gamma=  250.36 GHz
     lambda(    7)=  0.0054   gamma=   19.83 GHz
     lambda(    8)=  0.0055   gamma=   20.04 GHz
     lambda(    9)=  0.0055   gamma=   20.03 GHz
     lambda(   10)=  0.0079   gamma=   55.40 GHz
     lambda(   11)=  0.0079   gamma=   55.36 GHz
     lambda(   12)=  0.0081   gamma=   56.79 GHz
     lambda(   13)=  0.0337   gamma=  258.35 GHz
     lambda(   14)=  0.0337   gamma=  258.30 GHz
     lambda(   15)=  0.0330   gamma=  252.87 GHz
     lambda(   16)=  0.0017   gamma=   13.70 GHz
     lambda(   17)=  0.0018   gamma=   14.04 GHz
     lambda(   18)=  0.0017   gamma=   13.72 GHz
     lambda(   19)=  0.0187   gamma=  151.28 GHz
     lambda(   20)=  0.0180   gamma=  146.05 GHz
     lambda(   21)=  0.0191   gamma=  154.63 GHz
     lambda(   22)=  0.0009   gamma=    7.66 GHz
     lambda(   23)=  0.0009   gamma=    7.66 GHz
     lambda(   24)=  0.1755   gamma= 1934.38 GHz
     lambda(   25)=  0.1754   gamma= 1933.95 GHz
     lambda(   26)=  0.0535   gamma=  711.18 GHz
     lambda(   27)=  0.0525   gamma=  697.77 GHz
     lambda(   28)=  0.0528   gamma=  701.19 GHz
     lambda(   29)=  0.0042   gamma=   57.21 GHz
     lambda(   30)=  0.0043   gamma=   58.97 GHz
     lambda(   31)=  0.0044   gamma=   59.62 GHz
     lambda(   32)=  0.0002   gamma=    2.95 GHz
     lambda(   33)=  0.1213   gamma= 2690.64 GHz
     Gaussian Broadening:   0.035 Ry, ngauss=   0
     DOS =  4.903732 states/spin/Ry/Unit Cell at Ef= 22.122264 eV
     lambda(    1)=  0.0000   gamma=    0.06 GHz
     lambda(    2)=  0.0000   gamma=    0.06 GHz
     lambda(    3)=  0.0000   gamma=    0.05 GHz
     lambda(    4)=  0.0811   gamma=  222.54 GHz
     lambda(    5)=  0.0818   gamma=  224.51 GHz
     lambda(    6)=  0.0810   gamma=  222.46 GHz
     lambda(    7)=  0.0065   gamma=   24.65 GHz
     lambda(    8)=  0.0066   gamma=   24.78 GHz
     lambda(    9)=  0.0066   gamma=   24.79 GHz
     lambda(   10)=  0.0082   gamma=   59.21 GHz
     lambda(   11)=  0.0082   gamma=   59.19 GHz
     lambda(   12)=  0.0083   gamma=   60.09 GHz
     lambda(   13)=  0.0298   gamma=  235.27 GHz
     lambda(   14)=  0.0298   gamma=  235.22 GHz
     lambda(   15)=  0.0291   gamma=  229.62 GHz
     lambda(   16)=  0.0026   gamma=   21.19 GHz
     lambda(   17)=  0.0027   gamma=   21.56 GHz
     lambda(   18)=  0.0026   gamma=   21.20 GHz
     lambda(   19)=  0.0199   gamma=  166.07 GHz
     lambda(   20)=  0.0192   gamma=  160.87 GHz
     lambda(   21)=  0.0203   gamma=  169.39 GHz
     lambda(   22)=  0.0011   gamma=    9.37 GHz
     lambda(   23)=  0.0011   gamma=    9.37 GHz
     lambda(   24)=  0.1492   gamma= 1696.03 GHz
     lambda(   25)=  0.1491   gamma= 1694.89 GHz
     lambda(   26)=  0.0466   gamma=  639.20 GHz
     lambda(   27)=  0.0459   gamma=  628.29 GHz
     lambda(   28)=  0.0461   gamma=  631.07 GHz
     lambda(   29)=  0.0048   gamma=   67.17 GHz
     lambda(   30)=  0.0049   gamma=   69.09 GHz
     lambda(   31)=  0.0049   gamma=   69.85 GHz
     lambda(   32)=  0.0003   gamma=    5.76 GHz
     lambda(   33)=  0.1012   gamma= 2316.56 GHz
     Gaussian Broadening:   0.040 Ry, ngauss=   0
     DOS =  5.088867 states/spin/Ry/Unit Cell at Ef= 22.114955 eV
     lambda(    1)=  0.0000   gamma=    0.08 GHz
     lambda(    2)=  0.0000   gamma=    0.08 GHz
     lambda(    3)=  0.0000   gamma=    0.08 GHz
     lambda(    4)=  0.0708   gamma=  201.77 GHz
     lambda(    5)=  0.0713   gamma=  203.09 GHz
     lambda(    6)=  0.0708   gamma=  201.71 GHz
     lambda(    7)=  0.0079   gamma=   30.73 GHz
     lambda(    8)=  0.0079   gamma=   30.78 GHz
     lambda(    9)=  0.0079   gamma=   30.82 GHz
     lambda(   10)=  0.0087   gamma=   64.86 GHz
     lambda(   11)=  0.0087   gamma=   64.85 GHz
     lambda(   12)=  0.0087   gamma=   65.21 GHz
     lambda(   13)=  0.0269   gamma=  220.37 GHz
     lambda(   14)=  0.0269   gamma=  220.32 GHz
     lambda(   15)=  0.0262   gamma=  214.63 GHz
     lambda(   16)=  0.0036   gamma=   30.47 GHz
     lambda(   17)=  0.0037   gamma=   30.83 GHz
     lambda(   18)=  0.0036   gamma=   30.48 GHz
     lambda(   19)=  0.0208   gamma=  180.71 GHz
     lambda(   20)=  0.0202   gamma=  175.53 GHz
     lambda(   21)=  0.0212   gamma=  184.00 GHz
     lambda(   22)=  0.0013   gamma=   11.57 GHz
     lambda(   23)=  0.0013   gamma=   11.57 GHz
     lambda(   24)=  0.1293   gamma= 1525.87 GHz
     lambda(   25)=  0.1292   gamma= 1523.89 GHz
     lambda(   26)=  0.0413   gamma=  587.12 GHz
     lambda(   27)=  0.0407   gamma=  578.26 GHz
     lambda(   28)=  0.0408   gamma=  580.52 GHz
     lambda(   29)=  0.0054   gamma=   78.57 GHz
     lambda(   30)=  0.0055   gamma=   80.62 GHz
     lambda(   31)=  0.0056   gamma=   81.51 GHz
     lambda(   32)=  0.0005   gamma=    9.21 GHz
     lambda(   33)=  0.0857   gamma= 2034.68 GHz
     Gaussian Broadening:   0.045 Ry, ngauss=   0
     DOS =  5.309480 states/spin/Ry/Unit Cell at Ef= 22.104685 eV
     lambda(    1)=  0.0000   gamma=    0.12 GHz
     lambda(    2)=  0.0000   gamma=    0.12 GHz
     lambda(    3)=  0.0000   gamma=    0.12 GHz
     lambda(    4)=  0.0626   gamma=  186.20 GHz
     lambda(    5)=  0.0629   gamma=  186.94 GHz
     lambda(    6)=  0.0626   gamma=  186.17 GHz
     lambda(    7)=  0.0092   gamma=   37.69 GHz
     lambda(    8)=  0.0092   gamma=   37.67 GHz
     lambda(    9)=  0.0093   gamma=   37.74 GHz
     lambda(   10)=  0.0091   gamma=   71.30 GHz
     lambda(   11)=  0.0091   gamma=   71.30 GHz
     lambda(   12)=  0.0091   gamma=   71.20 GHz
     lambda(   13)=  0.0247   gamma=  211.15 GHz
     lambda(   14)=  0.0247   gamma=  211.11 GHz
     lambda(   15)=  0.0240   gamma=  205.42 GHz
     lambda(   16)=  0.0047   gamma=   41.07 GHz
     lambda(   17)=  0.0047   gamma=   41.40 GHz
     lambda(   18)=  0.0047   gamma=   41.08 GHz
     lambda(   19)=  0.0216   gamma=  195.32 GHz
     lambda(   20)=  0.0210   gamma=  190.19 GHz
     lambda(   21)=  0.0219   gamma=  198.56 GHz
     lambda(   22)=  0.0015   gamma=   14.18 GHz
     lambda(   23)=  0.0015   gamma=   14.17 GHz
     lambda(   24)=  0.1138   gamma= 1400.37 GHz
     lambda(   25)=  0.1135   gamma= 1397.67 GHz
     lambda(   26)=  0.0370   gamma=  549.09 GHz
     lambda(   27)=  0.0365   gamma=  541.93 GHz
     lambda(   28)=  0.0367   gamma=  543.76 GHz
     lambda(   29)=  0.0059   gamma=   90.73 GHz
     lambda(   30)=  0.0061   gamma=   92.84 GHz
     lambda(   31)=  0.0061   gamma=   93.83 GHz
     lambda(   32)=  0.0007   gamma=   12.94 GHz
     lambda(   33)=  0.0733   gamma= 1815.68 GHz
     Gaussian Broadening:   0.050 Ry, ngauss=   0
     DOS =  5.560451 states/spin/Ry/Unit Cell at Ef= 22.091444 eV
     lambda(    1)=  0.0000   gamma=    0.17 GHz
     lambda(    2)=  0.0000   gamma=    0.17 GHz
     lambda(    3)=  0.0000   gamma=    0.16 GHz
     lambda(    4)=  0.0561   gamma=  174.60 GHz
     lambda(    5)=  0.0562   gamma=  174.84 GHz
     lambda(    6)=  0.0561   gamma=  174.59 GHz
     lambda(    7)=  0.0106   gamma=   45.06 GHz
     lambda(    8)=  0.0105   gamma=   45.00 GHz
     lambda(    9)=  0.0106   gamma=   45.09 GHz
     lambda(   10)=  0.0095   gamma=   77.82 GHz
     lambda(   11)=  0.0095   gamma=   77.83 GHz
     lambda(   12)=  0.0095   gamma=   77.39 GHz
     lambda(   13)=  0.0230   gamma=  206.11 GHz
     lambda(   14)=  0.0230   gamma=  206.07 GHz
     lambda(   15)=  0.0224   gamma=  200.44 GHz
     lambda(   16)=  0.0057   gamma=   52.49 GHz
     lambda(   17)=  0.0058   gamma=   52.76 GHz
     lambda(   18)=  0.0057   gamma=   52.49 GHz
     lambda(   19)=  0.0221   gamma=  209.83 GHz
     lambda(   20)=  0.0216   gamma=  204.79 GHz
     lambda(   21)=  0.0225   gamma=  212.97 GHz
     lambda(   22)=  0.0018   gamma=   17.11 GHz
     lambda(   23)=  0.0018   gamma=   17.11 GHz
     lambda(   24)=  0.1013   gamma= 1305.56 GHz
     lambda(   25)=  0.1010   gamma= 1302.39 GHz
     lambda(   26)=  0.0335   gamma=  521.18 GHz
     lambda(   27)=  0.0332   gamma=  515.43 GHz
     lambda(   28)=  0.0333   gamma=  516.91 GHz
     lambda(   29)=  0.0064   gamma=  102.99 GHz
     lambda(   30)=  0.0066   gamma=  105.08 GHz
     lambda(   31)=  0.0066   gamma=  106.13 GHz
     lambda(   32)=  0.0009   gamma=   16.68 GHz
     lambda(   33)=  0.0633   gamma= 1641.28 GHz
 
 
     Number of q in the star =    1
     List of q in the star:
          1   0.000000000   0.000000000   0.000000000
 
     PHONON       :   8m19.21s CPU  13m 8.93s WALL

     INITIALIZATION: 
     phq_setup    :      0.02s CPU      0.11s WALL (       1 calls)
     phq_init     :      6.14s CPU      7.52s WALL (       1 calls)
 
     phq_init     :      6.14s CPU      7.52s WALL (       1 calls)
     set_drhoc    :      0.00s CPU      0.00s WALL (       3 calls)
     init_vloc    :      0.00s CPU      0.03s WALL (       1 calls)
     init_us_1    :      0.08s CPU      0.22s WALL (       1 calls)
     init_us_2    :      0.22s CPU      0.24s WALL (    2376 calls)
     newd         :      0.02s CPU      0.05s WALL (       1 calls)
     dvanqq       :      1.60s CPU      1.61s WALL (       1 calls)
     drho         :      2.75s CPU      3.94s WALL (       1 calls)
     drhous       :      0.58s CPU      0.68s WALL (       1 calls)
     nldyntot     :      0.07s CPU      0.07s WALL (       1 calls)
 
     DYNAMICAL MATRIX:
     dynmat0      :      1.67s CPU      1.72s WALL (       1 calls)
     dynmat_us    :      1.62s CPU      1.65s WALL (       1 calls)
     addusdynmat  :      0.00s CPU      0.00s WALL (       1 calls)
     d2ionq       :      0.04s CPU      0.04s WALL (       1 calls)
     dynmatcc     :      0.01s CPU      0.01s WALL (       1 calls)
     phqscf       :    465.12s CPU    746.37s WALL (       1 calls)
     dynmatrix    :      0.08s CPU      0.11s WALL (       1 calls)
 
     phqscf       :    465.12s CPU    746.37s WALL (       1 calls)
     solve_linter :    459.34s CPU    729.43s WALL (      13 calls)
     sth_kernel   :    187.81s CPU    281.37s WALL (      77 calls)
     h_prec       :     13.77s CPU     14.00s WALL (    1386 calls)
     apply_dpot_b :     25.90s CPU     39.18s WALL (    3492 calls)
     ortho        :      5.61s CPU      5.80s WALL (    3492 calls)
     cgsolve      :     99.88s CPU    118.88s WALL (    3492 calls)
     incdrhoscf   :     28.80s CPU     43.07s WALL (    3492 calls)
                                        0.00s GPU  (    3492 calls)
     addusddens   :      9.05s CPU     14.77s WALL (      90 calls)
     vpsifft      :      4.86s CPU      7.51s WALL (     594 calls)
     dv_of_drho   :      1.77s CPU      1.97s WALL (     194 calls)
     mix_pot      :     15.75s CPU     63.25s WALL (      77 calls)
     ef_shift     :      5.65s CPU      8.45s WALL (      77 calls)
     ef_shift_wfc :      0.05s CPU     10.06s WALL (      13 calls)
     localdos     :      7.94s CPU      8.49s WALL (      13 calls)
     drhodv       :      5.76s CPU      8.34s WALL (      13 calls)
     psymdvscf    :     65.51s CPU     66.18s WALL (      77 calls)
     newdq        :     16.40s CPU     16.56s WALL (      77 calls)
     adddvscf     :      0.42s CPU      0.47s WALL (    3492 calls)
     com_dvloc    :      5.46s CPU      8.43s WALL (    1056 calls)
                                        0.00s GPU  (    1056 calls)
     addcore      :      0.40s CPU      0.46s WALL (    1316 calls)
                                        0.00s GPU  (    1316 calls)
     drhodvus     :      4.46s CPU     20.28s WALL (      13 calls)
 
     dvqpsi_us    :      8.14s CPU     11.23s WALL (     594 calls)
                                        0.00s GPU  (     594 calls)
     dvqpsi_us_on :      1.89s CPU      1.91s WALL (     594 calls)
 
     add_vuspsi   :      1.69s CPU      1.86s WALL (   73983 calls)
     addusdbec    :      0.24s CPU      0.26s WALL (    4086 calls)
 
     drhodvus     :      4.46s CPU     20.28s WALL (      13 calls)
 
      Electron-phonon coupling
     elphel       :      6.02s CPU     12.98s WALL (      13 calls)
     elphsum      :     26.50s CPU     26.75s WALL (       1 calls)
 
      General routines
     calbec       :     14.95s CPU     15.64s WALL (  158334 calls)
     fft          :      7.06s CPU     10.18s WALL (    4996 calls)
     ffts         :      6.28s CPU      9.64s WALL (    4338 calls)
     fftw         :    125.26s CPU    168.86s WALL ( 1481423 calls)
     davcio       :      1.61s CPU    130.39s WALL (   16452 calls)
     write_rec    :      0.13s CPU     69.42s WALL (      90 calls)
 
      Additional routines
     ch_psi       :     98.34s CPU    117.17s WALL (   73983 calls)
     last         :      6.24s CPU      6.84s WALL (   73983 calls)
     Hesh         :      0.20s CPU      0.23s WALL (   73983 calls)
     ch_psi_all_k :      5.73s CPU      6.28s WALL (   73983 calls)
                                        0.00s GPU  (   73983 calls)
     ch_psi_calbe :      1.85s CPU      2.02s WALL (   73983 calls)
                                        0.00s GPU  (   73983 calls)
     h_psi_bgrp   :     89.64s CPU    107.65s WALL (   73983 calls)
     h_psi        :     89.47s CPU    107.46s WALL (   73983 calls)
     h_psi:pot    :     89.17s CPU    107.14s WALL (   73983 calls)
     h_psi:calbec :      2.32s CPU      2.54s WALL (   73983 calls)
     s_psi_bgrp   :      3.86s CPU      4.22s WALL (  151458 calls)
     s_psi        :      3.33s CPU      3.65s WALL (  151458 calls)
 
 
     PHONON       :   8m19.21s CPU  13m 8.93s WALL

 
   This run was terminated on:  15:49:22  22Oct2025            

=------------------------------------------------------------------------------=
   JOB DONE.
=------------------------------------------------------------------------------=
