
     Program PHONON v.7.4.1 starts on 22Oct2025 at 16:57:18 

     This program is part of the open-source Quantum ESPRESSO suite
     for quantum simulation of materials; please cite
         "P. Giannozzi et al., J. Phys.:Condens. Matter 21 395502 (2009);
         "P. Giannozzi et al., J. Phys.:Condens. Matter 29 465901 (2017);
         "P. Giannozzi et al., J. Chem. Phys. 152 154105 (2020);
          URL http://www.quantum-espresso.org", 
     in publications or presentations arising from this work. More details at
     http://www.quantum-espresso.org/quote

     Parallel version (MPI), running on    48 processors

     MPI processes distributed on     1 nodes
     180857 MiB available memory on the printing compute node when the environment starts
 
     Waiting for input...
     Reading input from standard input

     Reading xml data from directory:

     ./tmp/Ce1H10.save/
 
     K-points division:     npool     =       4
     R & G space division:  proc/nbgrp/npool/nimage =      12
     Subspace diagonalization in iterative solution of the eigenvalue problem:
     a serial algorithm will be used

     file Ce.paw.z_12.atompaw.wentzcovitch.v1.2.upf: wavefunction(s)  6S 0P 5D 0D 4F 0F renormalized
     file H.pbe-kjpaw_psl.1.0.0.UPF: wavefunction(s)  1S renormalized

     IMPORTANT: XC functional enforced from input :
     Exchange-correlation= PBE
                           (   1   4   3   4   0   0   0)
     Any further DFT definition will be discarded
     Please, verify this is what you really want

 
     Parallelization info
     --------------------
     sticks:   dense  smooth     PW     G-vecs:    dense   smooth      PW
     Min         226      76     22                 7730     1493     247
     Max         227      77     23                 7733     1495     249
     Sum        2713     913    271                92769    17933    2975
 
     Using Slab Decomposition
 
     Reading collected, re-writing distributed wavefunctions in ./tmp/


     Dynamical matrices for ( 6, 6, 6)  uniform grid of q-points
     (  16 q-points):
       N         xq(1)         xq(2)         xq(3) 
       1   0.000000000   0.000000000   0.000000000
       2   0.117851130   0.117851130  -0.117851130
       3   0.235702260   0.235702260  -0.235702260
       4  -0.353553391  -0.353553391   0.353553391
       5   0.235702260   0.000000000   0.000000000
       6   0.353553391   0.117851130  -0.117851130
       7  -0.235702260  -0.471404521   0.471404521
       8  -0.117851130  -0.353553391   0.353553391
       9   0.000000000  -0.235702260   0.235702260
      10   0.471404521   0.000000000   0.000000000
      11  -0.117851130  -0.589255651   0.589255651
      12  -0.000000000  -0.471404521   0.471404521
      13  -0.707106781   0.000000000   0.000000000
      14  -0.235702260  -0.471404521   0.707106781
      15  -0.117851130  -0.353553391   0.589255651
      16  -0.707106781   0.235702260   0.000000000

     Number and degeneracy of irreps per q-point
       N         xq(1)         xq(2)         xq(3)   N irreps
       1   0.000000000   0.000000000   0.000000000      13
        1   2   3   3   3   3   1   2   3   3   3   3   3
       2   0.117851130   0.117851130  -0.117851130      22
        1   1   1   1   1   1   1   1   1   1   1   2   2   2   2   2   2   2
   2   2   2   2
       3   0.235702260   0.235702260  -0.235702260      22
        1   1   1   1   1   1   1   1   1   1   1   2   2   2   2   2   2   2
   2   2   2   2
       4  -0.353553391  -0.353553391   0.353553391      22
        1   1   1   1   1   1   2   2   2   2   2   2   1   1   1   1   1   2
   2   2   2   2
       5   0.235702260   0.000000000   0.000000000      24
        1   1   1   1   1   1   1   1   1   1   1   1   1   1   1   2   2   2
   2   2   2   2   2   2
       6   0.353553391   0.117851130  -0.117851130      33
     No degeneracy
       7  -0.235702260  -0.471404521   0.471404521      33
     No degeneracy
       8  -0.117851130  -0.353553391   0.353553391      33
     No degeneracy
       9   0.000000000  -0.235702260   0.235702260      33
     No degeneracy
      10   0.471404521   0.000000000   0.000000000      24
        1   1   1   1   1   1   1   1   1   1   1   1   1   1   1   2   2   2
   2   2   2   2   2   2
      11  -0.117851130  -0.589255651   0.589255651      33
     No degeneracy
      12  -0.000000000  -0.471404521   0.471404521      33
     No degeneracy
      13  -0.707106781   0.000000000   0.000000000      24
        1   1   1   1   1   1   1   2   2   2   2   1   1   1   1   1   1   1
   1   2   2   2   2   2
      14  -0.235702260  -0.471404521   0.707106781      33
     No degeneracy
      15  -0.117851130  -0.353553391   0.589255651      33
     No degeneracy
      16  -0.707106781   0.235702260   0.000000000      33
     No degeneracy

     Saving dvscf to file. Distribute only q points, not irreducible representations.

     Calculation of q =   -0.1178511  -0.3535534   0.3535534
 
     Parallelization info
     --------------------
     sticks:   dense  smooth     PW     G-vecs:    dense   smooth      PW
     Min         226      76     25                 7730     1493     289
     Max         227      77     26                 7733     1495     292
     Sum        2713     913    301                92769    17933    3479
 
     Using Slab Decomposition
 

     Title: 
     Electron-phonon coefficients for Ce1H10                                    


     bravais-lattice index     =            0
     lattice parameter (alat)  =       6.3833  a.u.
     unit-cell volume          =     183.9165 (a.u.)^3
     number of atoms/cell      =           11
     number of atomic types    =            2
     number of electrons       =        22.00
     number of Kohn-Sham states=           15
     kinetic-energy cutoff     =      80.0000  Ry
     charge density cutoff     =     960.0000  Ry
     Exchange-correlation= PBE
                           (   1   4   3   4   0   0   0)

     celldm(1)=   6.383300  celldm(2)=   0.000000  celldm(3)=   0.000000
     celldm(4)=   0.000000  celldm(5)=   0.000000  celldm(6)=   0.000000

     crystal axes: (cart. coord. in units of alat)
               a(1) = (   0.000000   0.707107   0.707107 )  
               a(2) = (   0.707107   0.000000   0.707107 )  
               a(3) = (   0.707107   0.707107   0.000000 )  

     reciprocal axes: (cart. coord. in units 2 pi/alat)
               b(1) = ( -0.707107  0.707107  0.707107 )  
               b(2) = (  0.707107 -0.707107  0.707107 )  
               b(3) = (  0.707107  0.707107 -0.707107 )  


     PseudoPot. # 1 for Ce read from file:
     /work/home/mayuan/workplace/1.typical_hydride/003.MH10/2.CeH10/250/Tc-666-paw/pp/Ce.paw.z_12.atompaw.wentzcovitch.v1.2.upf
     MD5 check sum: 2241420ff980c77e0c917a2dc8a7e08e
     Pseudo is Projector augmented-wave + core cor, Zval = 12.0
     Generated using ATOMPAW code
     Shape of augmentation charge: BESSEL
     Using radial grid of 1102 points,  8 beta functions with: 
                l(1) =   0
                l(2) =   0
                l(3) =   1
                l(4) =   1
                l(5) =   2
                l(6) =   2
                l(7) =   3
                l(8) =   3
     Q(r) pseudized with 0 coefficients 


     PseudoPot. # 2 for H  read from file:
     /work/home/mayuan/workplace/1.typical_hydride/003.MH10/2.CeH10/250/Tc-666-paw/pp/H.pbe-kjpaw_psl.1.0.0.UPF
     MD5 check sum: 3bb27c602ede137025941d095c9090b7
     Pseudo is Projector augmented-wave, Zval =  1.0
     Generated using 'atomic' code by A. Dal Corso  v.7.1
     Shape of augmentation charge: PSQ
     Using radial grid of  929 points,  2 beta functions with: 
                l(1) =   0
                l(2) =   0
     Q(r) pseudized with 0 coefficients 


     atomic species   valence    mass     pseudopotential
     Ce               12.00   140.11600     Ce( 1.00)
     H                 1.00     1.00794     H ( 1.00)

     48 Sym. Ops., with inversion, found



   Cartesian axes

     site n.     atom                  positions (alat units)
         1        Ce     tau(   1) = (   0.7071068   0.7071068   0.7071068  )
         2        H      tau(   2) = (   0.3535534   0.3535534   0.3535534  )
         3        H      tau(   3) = (   1.0606602   1.0606602   1.0606602  )
         4        H      tau(   4) = (   1.2411448   1.2411448   1.2411448  )
         5        H      tau(   5) = (   0.1730688   0.1730688   0.1730688  )
         6        H      tau(   6) = (   0.8801756   0.8801756   1.2411448  )
         7        H      tau(   7) = (   0.5340380   0.5340380   0.1730688  )
         8        H      tau(   8) = (   0.8801756   1.2411448   0.8801756  )
         9        H      tau(   9) = (   0.5340380   0.1730688   0.5340380  )
        10        H      tau(  10) = (   1.2411448   0.8801756   0.8801756  )
        11        H      tau(  11) = (   0.1730688   0.5340380   0.5340380  )

     number of k points=  1872  Gaussian smearing, width (Ry)=  0.0200

     Number of k-points >= 100: set verbosity='high' to print them.

     Dense  grid:    92769 G-vectors     FFT dimensions: (  64,  64,  64)

     Smooth grid:    17933 G-vectors     FFT dimensions: (  40,  40,  40)

     Estimated max dynamical RAM per process >      31.96 MB

     Estimated total dynamical RAM >       1.50 GB

     The potential is recalculated from file :
     ./tmp/_ph0/Ce1H10.q_8/Ce1H10.save/charge-density

     Starting wfcs are   42 atomic wfcs
     Checking if some PAW data can be deallocated... 

     Band Structure Calculation
     Davidson diagonalization with overlap

     ethr =  4.55E-11,  avg # of iterations = 19.1

     total cpu time spent up to now is       40.9 secs

     End of band structure calculation

     Number of k-points >= 100: set verbosity='high' to print the bands.

     the Fermi energy is    22.0987 ev

     Writing config to output data dir ./tmp/_ph0/Ce1H10.q_8/Ce1H10.save/ :
     XML data file

Possibly too few bands at point    1   0.00000   0.00000   0.00000

     Electron-phonon coefficients for Ce1H10                                    

     bravais-lattice index     =            0
     lattice parameter (alat)  =       6.3833  a.u.
     unit-cell volume          =     183.9165 (a.u.)^3
     number of atoms/cell      =           11
     number of atomic types    =            2
     kinetic-energy cut-off    =      80.0000  Ry
     charge density cut-off    =     960.0000  Ry
     convergence threshold     =      1.0E-14
     beta                      =       0.3000
     number of iterations used =            4
     Exchange-correlation= PBE
                           (   1   4   3   4   0   0   0)


     celldm(1)=    6.38330  celldm(2)=    0.00000  celldm(3)=    0.00000
     celldm(4)=    0.00000  celldm(5)=    0.00000  celldm(6)=    0.00000

     crystal axes: (cart. coord. in units of alat)
               a(1) = (  0.0000  0.7071  0.7071 )  
               a(2) = (  0.7071  0.0000  0.7071 )  
               a(3) = (  0.7071  0.7071  0.0000 )  

     reciprocal axes: (cart. coord. in units 2 pi/alat)
               b(1) = ( -0.7071  0.7071  0.7071 )  
               b(2) = (  0.7071 -0.7071  0.7071 )  
               b(3) = (  0.7071  0.7071 -0.7071 )  


     Atoms inside the unit cell: 

     Cartesian axes

     site n.  atom      mass           positions (alat units)
        1  Ce    140.1160   tau(    1) = (    0.70711    0.70711    0.70711  )
        2  H       1.0079   tau(    2) = (    0.35355    0.35355    0.35355  )
        3  H       1.0079   tau(    3) = (    1.06066    1.06066    1.06066  )
        4  H       1.0079   tau(    4) = (    1.24114    1.24114    1.24114  )
        5  H       1.0079   tau(    5) = (    0.17307    0.17307    0.17307  )
        6  H       1.0079   tau(    6) = (    0.88018    0.88018    1.24114  )
        7  H       1.0079   tau(    7) = (    0.53404    0.53404    0.17307  )
        8  H       1.0079   tau(    8) = (    0.88018    1.24114    0.88018  )
        9  H       1.0079   tau(    9) = (    0.53404    0.17307    0.53404  )
       10  H       1.0079   tau(   10) = (    1.24114    0.88018    0.88018  )
       11  H       1.0079   tau(   11) = (    0.17307    0.53404    0.53404  )

     Computing dynamical matrix for 
                    q = (  -0.1178511  -0.3535534   0.3535534 )
 
      2 Sym.Ops. (no q -> -q+G )


     G cutoff =  990.8365  (   7731 G-vectors)     FFT grid: ( 64, 64, 64)
     G cutoff =  330.2788  (   1495 G-vectors)  smooth grid: ( 40, 40, 40)

     number of k points=  1872  Gaussian smearing, width (Ry)=  0.0200

     PseudoPot. # 1 for Ce read from file:
     /work/home/mayuan/workplace/1.typical_hydride/003.MH10/2.CeH10/250/Tc-666-paw/pp/Ce.paw.z_12.atompaw.wentzcovitch.v1.2.upf
     MD5 check sum: 2241420ff980c77e0c917a2dc8a7e08e
     Pseudo is Projector augmented-wave + core cor, Zval = 12.0
     Generated using ATOMPAW code
     Shape of augmentation charge: BESSEL
     Using radial grid of 1102 points,  8 beta functions with: 
                l(1) =   0
                l(2) =   0
                l(3) =   1
                l(4) =   1
                l(5) =   2
                l(6) =   2
                l(7) =   3
                l(8) =   3
     Q(r) pseudized with 0 coefficients 


     PseudoPot. # 2 for H  read from file:
     /work/home/mayuan/workplace/1.typical_hydride/003.MH10/2.CeH10/250/Tc-666-paw/pp/H.pbe-kjpaw_psl.1.0.0.UPF
     MD5 check sum: 3bb27c602ede137025941d095c9090b7
     Pseudo is Projector augmented-wave, Zval =  1.0
     Generated using 'atomic' code by A. Dal Corso  v.7.1
     Shape of augmentation charge: PSQ
     Using radial grid of  929 points,  2 beta functions with: 
                l(1) =   0
                l(2) =   0
     Q(r) pseudized with 0 coefficients 


     Mode symmetry, C_s (m)     point group:


     Atomic displacements:
     There are   33 irreducible representations

     Representation     1      1 modes -  To be done

     Representation     2      1 modes -  To be done

     Representation     3      1 modes -  To be done

     Representation     4      1 modes -  To be done

     Representation     5      1 modes -  To be done

     Representation     6      1 modes -  To be done

     Representation     7      1 modes -  To be done

     Representation     8      1 modes -  To be done

     Representation     9      1 modes -  To be done

     Representation    10      1 modes -  To be done

     Representation    11      1 modes -  To be done

     Representation    12      1 modes -  To be done

     Representation    13      1 modes -  To be done

     Representation    14      1 modes -  To be done

     Representation    15      1 modes -  To be done

     Representation    16      1 modes -  To be done

     Representation    17      1 modes -  To be done

     Representation    18      1 modes -  To be done

     Representation    19      1 modes -  To be done

     Representation    20      1 modes -  To be done

     Representation    21      1 modes -  To be done

     Representation    22      1 modes -  To be done

     Representation    23      1 modes -  To be done

     Representation    24      1 modes -  To be done

     Representation    25      1 modes -  To be done

     Representation    26      1 modes -  To be done

     Representation    27      1 modes -  To be done

     Representation    28      1 modes -  To be done

     Representation    29      1 modes -  To be done

     Representation    30      1 modes -  To be done

     Representation    31      1 modes -  To be done

     Representation    32      1 modes -  To be done

     Representation    33      1 modes -  To be done


     Message from routine init_vloc:
     Interpolation table for Vloc re-allocated

     Alpha used in Ewald sum =   2.8000
     PHONON       :   1m 9.56s CPU   1m28.83s WALL



     Representation #   1 mode #   1

     Self-consistent Calculation

      iter #   1 total cpu time :   124.7 secs   av.it.:   7.7
      thresh= 1.000E-02 alpha_mix =  0.300 |ddv_scf|^2 =  2.870E-06

      iter #   2 total cpu time :   164.1 secs   av.it.:  15.9
      thresh= 1.694E-04 alpha_mix =  0.300 |ddv_scf|^2 =  1.841E-05

      iter #   3 total cpu time :   201.1 secs   av.it.:  14.0
      thresh= 4.291E-04 alpha_mix =  0.300 |ddv_scf|^2 =  1.111E-07

      iter #   4 total cpu time :   239.8 secs   av.it.:  14.9
      thresh= 3.333E-05 alpha_mix =  0.300 |ddv_scf|^2 =  2.479E-09

      iter #   5 total cpu time :   279.0 secs   av.it.:  15.9
      thresh= 4.979E-06 alpha_mix =  0.300 |ddv_scf|^2 =  5.546E-10

      iter #   6 total cpu time :   315.2 secs   av.it.:  16.7
      thresh= 2.355E-06 alpha_mix =  0.300 |ddv_scf|^2 =  2.004E-11

      iter #   7 total cpu time :   354.3 secs   av.it.:  16.4
      thresh= 4.476E-07 alpha_mix =  0.300 |ddv_scf|^2 =  3.636E-12

      iter #   8 total cpu time :   395.8 secs   av.it.:  17.1
      thresh= 1.907E-07 alpha_mix =  0.300 |ddv_scf|^2 =  2.367E-12

      iter #   9 total cpu time :   437.7 secs   av.it.:  15.1
      thresh= 1.539E-07 alpha_mix =  0.300 |ddv_scf|^2 =  8.359E-13

      iter #  10 total cpu time :   476.2 secs   av.it.:  15.7
      thresh= 9.143E-08 alpha_mix =  0.300 |ddv_scf|^2 =  4.841E-14

      iter #  11 total cpu time :   515.8 secs   av.it.:  16.8
      thresh= 2.200E-08 alpha_mix =  0.300 |ddv_scf|^2 =  4.475E-14

      iter #  12 total cpu time :   555.9 secs   av.it.:  15.8
      thresh= 2.115E-08 alpha_mix =  0.300 |ddv_scf|^2 =  3.994E-15

     End of self-consistent calculation

     Convergence has been achieved 


     Representation #   2 mode #   2

     Self-consistent Calculation

      iter #   1 total cpu time :   614.8 secs   av.it.:   7.5
      thresh= 1.000E-02 alpha_mix =  0.300 |ddv_scf|^2 =  7.002E-07

      iter #   2 total cpu time :   645.9 secs   av.it.:  16.1
      thresh= 8.368E-05 alpha_mix =  0.300 |ddv_scf|^2 =  3.883E-06

      iter #   3 total cpu time :   679.0 secs   av.it.:  14.1
      thresh= 1.971E-04 alpha_mix =  0.300 |ddv_scf|^2 =  5.079E-08

      iter #   4 total cpu time :   711.7 secs   av.it.:  15.3
      thresh= 2.254E-05 alpha_mix =  0.300 |ddv_scf|^2 =  1.534E-09

      iter #   5 total cpu time :   749.8 secs   av.it.:  16.6
      thresh= 3.917E-06 alpha_mix =  0.300 |ddv_scf|^2 =  4.069E-10

      iter #   6 total cpu time :   785.9 secs   av.it.:  16.6
      thresh= 2.017E-06 alpha_mix =  0.300 |ddv_scf|^2 =  5.984E-11

      iter #   7 total cpu time :   823.3 secs   av.it.:  16.3
      thresh= 7.736E-07 alpha_mix =  0.300 |ddv_scf|^2 =  4.090E-12

      iter #   8 total cpu time :   863.4 secs   av.it.:  16.5
      thresh= 2.022E-07 alpha_mix =  0.300 |ddv_scf|^2 =  1.078E-12

      iter #   9 total cpu time :   902.1 secs   av.it.:  16.3
      thresh= 1.038E-07 alpha_mix =  0.300 |ddv_scf|^2 =  2.988E-12

      iter #  10 total cpu time :   937.0 secs   av.it.:  15.4
      thresh= 1.728E-07 alpha_mix =  0.300 |ddv_scf|^2 =  4.414E-14

      iter #  11 total cpu time :   973.7 secs   av.it.:  16.0
      thresh= 2.101E-08 alpha_mix =  0.300 |ddv_scf|^2 =  1.415E-14

      iter #  12 total cpu time :  1009.0 secs   av.it.:  17.0
      thresh= 1.190E-08 alpha_mix =  0.300 |ddv_scf|^2 =  6.455E-15

     End of self-consistent calculation

     Convergence has been achieved 


     Representation #   3 mode #   3

     Self-consistent Calculation

      iter #   1 total cpu time :  1064.9 secs   av.it.:  11.9
      thresh= 1.000E-02 alpha_mix =  0.300 |ddv_scf|^2 =  2.236E-04

      iter #   2 total cpu time :  1095.2 secs   av.it.:  15.7
      thresh= 1.495E-03 alpha_mix =  0.300 |ddv_scf|^2 =  7.794E-04

      iter #   3 total cpu time :  1126.5 secs   av.it.:  14.3
      thresh= 2.792E-03 alpha_mix =  0.300 |ddv_scf|^2 =  5.192E-05

      iter #   4 total cpu time :  1161.5 secs   av.it.:  14.5
      thresh= 7.206E-04 alpha_mix =  0.300 |ddv_scf|^2 =  6.265E-07

      iter #   5 total cpu time :  1193.0 secs   av.it.:  14.7
      thresh= 7.915E-05 alpha_mix =  0.300 |ddv_scf|^2 =  3.832E-09

      iter #   6 total cpu time :  1228.7 secs   av.it.:  16.8
      thresh= 6.190E-06 alpha_mix =  0.300 |ddv_scf|^2 =  2.218E-10

      iter #   7 total cpu time :  1265.2 secs   av.it.:  16.2
      thresh= 1.489E-06 alpha_mix =  0.300 |ddv_scf|^2 =  4.243E-11

      iter #   8 total cpu time :  1302.7 secs   av.it.:  17.2
      thresh= 6.513E-07 alpha_mix =  0.300 |ddv_scf|^2 =  6.783E-12

      iter #   9 total cpu time :  1342.8 secs   av.it.:  16.3
      thresh= 2.604E-07 alpha_mix =  0.300 |ddv_scf|^2 =  1.353E-11

      iter #  10 total cpu time :  1381.7 secs   av.it.:  15.2
      thresh= 3.679E-07 alpha_mix =  0.300 |ddv_scf|^2 =  1.199E-12

      iter #  11 total cpu time :  1418.5 secs   av.it.:  16.2
      thresh= 1.095E-07 alpha_mix =  0.300 |ddv_scf|^2 =  8.398E-14

      iter #  12 total cpu time :  1457.3 secs   av.it.:  16.2
      thresh= 2.898E-08 alpha_mix =  0.300 |ddv_scf|^2 =  3.114E-14

      iter #  13 total cpu time :  1495.2 secs   av.it.:  16.6
      thresh= 1.765E-08 alpha_mix =  0.300 |ddv_scf|^2 =  2.749E-15

     End of self-consistent calculation

     Convergence has been achieved 


     Representation #   4 mode #   4

     Self-consistent Calculation

      iter #   1 total cpu time :  1551.9 secs   av.it.:   8.2
      thresh= 1.000E-02 alpha_mix =  0.300 |ddv_scf|^2 =  7.243E-06

      iter #   2 total cpu time :  1582.8 secs   av.it.:  15.9
      thresh= 2.691E-04 alpha_mix =  0.300 |ddv_scf|^2 =  4.617E-05

      iter #   3 total cpu time :  1615.6 secs   av.it.:  14.0
      thresh= 6.795E-04 alpha_mix =  0.300 |ddv_scf|^2 =  3.000E-07

      iter #   4 total cpu time :  1648.5 secs   av.it.:  14.6
      thresh= 5.477E-05 alpha_mix =  0.300 |ddv_scf|^2 =  2.992E-09

      iter #   5 total cpu time :  1689.6 secs   av.it.:  16.1
      thresh= 5.470E-06 alpha_mix =  0.300 |ddv_scf|^2 =  3.355E-10

      iter #   6 total cpu time :  1726.3 secs   av.it.:  17.0
      thresh= 1.832E-06 alpha_mix =  0.300 |ddv_scf|^2 =  2.773E-11

      iter #   7 total cpu time :  1767.0 secs   av.it.:  16.9
      thresh= 5.266E-07 alpha_mix =  0.300 |ddv_scf|^2 =  5.878E-12

      iter #   8 total cpu time :  1802.4 secs   av.it.:  16.6
      thresh= 2.424E-07 alpha_mix =  0.300 |ddv_scf|^2 =  1.294E-11

      iter #   9 total cpu time :  1835.5 secs   av.it.:  14.8
      thresh= 3.597E-07 alpha_mix =  0.300 |ddv_scf|^2 =  6.343E-12

      iter #  10 total cpu time :  1875.2 secs   av.it.:  15.5
      thresh= 2.519E-07 alpha_mix =  0.300 |ddv_scf|^2 =  2.904E-13

      iter #  11 total cpu time :  1914.3 secs   av.it.:  16.6
      thresh= 5.388E-08 alpha_mix =  0.300 |ddv_scf|^2 =  3.985E-14

      iter #  12 total cpu time :  1952.9 secs   av.it.:  16.4
      thresh= 1.996E-08 alpha_mix =  0.300 |ddv_scf|^2 =  9.608E-15

     End of self-consistent calculation

     Convergence has been achieved 


     Representation #   5 mode #   5

     Self-consistent Calculation

      iter #   1 total cpu time :  2016.2 secs   av.it.:   7.5
      thresh= 1.000E-02 alpha_mix =  0.300 |ddv_scf|^2 =  3.966E-07

      iter #   2 total cpu time :  2053.5 secs   av.it.:  16.0
      thresh= 6.297E-05 alpha_mix =  0.300 |ddv_scf|^2 =  8.267E-07

      iter #   3 total cpu time :  2088.8 secs   av.it.:  14.7
      thresh= 9.092E-05 alpha_mix =  0.300 |ddv_scf|^2 =  1.653E-07

      iter #   4 total cpu time :  2125.0 secs   av.it.:  14.8
      thresh= 4.066E-05 alpha_mix =  0.300 |ddv_scf|^2 =  4.241E-09

      iter #   5 total cpu time :  2162.4 secs   av.it.:  16.0
      thresh= 6.512E-06 alpha_mix =  0.300 |ddv_scf|^2 =  1.552E-10

      iter #   6 total cpu time :  2201.3 secs   av.it.:  17.0
      thresh= 1.246E-06 alpha_mix =  0.300 |ddv_scf|^2 =  4.000E-11

      iter #   7 total cpu time :  2236.0 secs   av.it.:  16.3
      thresh= 6.325E-07 alpha_mix =  0.300 |ddv_scf|^2 =  2.692E-12

      iter #   8 total cpu time :  2273.9 secs   av.it.:  16.5
      thresh= 1.641E-07 alpha_mix =  0.300 |ddv_scf|^2 =  6.078E-12

      iter #   9 total cpu time :  2308.8 secs   av.it.:  14.9
      thresh= 2.465E-07 alpha_mix =  0.300 |ddv_scf|^2 =  8.172E-13

      iter #  10 total cpu time :  2348.2 secs   av.it.:  16.6
      thresh= 9.040E-08 alpha_mix =  0.300 |ddv_scf|^2 =  9.986E-14

      iter #  11 total cpu time :  2382.5 secs   av.it.:  15.9
      thresh= 3.160E-08 alpha_mix =  0.300 |ddv_scf|^2 =  3.057E-14

      iter #  12 total cpu time :  2420.5 secs   av.it.:  15.5
      thresh= 1.748E-08 alpha_mix =  0.300 |ddv_scf|^2 =  1.171E-14

      iter #  13 total cpu time :  2460.0 secs   av.it.:  16.0
      thresh= 1.082E-08 alpha_mix =  0.300 |ddv_scf|^2 =  2.273E-15

     End of self-consistent calculation

     Convergence has been achieved 


     Representation #   6 mode #   6

     Self-consistent Calculation

      iter #   1 total cpu time :  2513.7 secs   av.it.:   7.7
      thresh= 1.000E-02 alpha_mix =  0.300 |ddv_scf|^2 =  1.288E-06

      iter #   2 total cpu time :  2551.2 secs   av.it.:  15.8
      thresh= 1.135E-04 alpha_mix =  0.300 |ddv_scf|^2 =  3.856E-06

      iter #   3 total cpu time :  2586.9 secs   av.it.:  14.4
      thresh= 1.964E-04 alpha_mix =  0.300 |ddv_scf|^2 =  3.680E-07

      iter #   4 total cpu time :  2624.2 secs   av.it.:  14.7
      thresh= 6.066E-05 alpha_mix =  0.300 |ddv_scf|^2 =  7.515E-09

      iter #   5 total cpu time :  2660.5 secs   av.it.:  15.6
      thresh= 8.669E-06 alpha_mix =  0.300 |ddv_scf|^2 =  2.555E-10

      iter #   6 total cpu time :  2703.4 secs   av.it.:  17.1
      thresh= 1.598E-06 alpha_mix =  0.300 |ddv_scf|^2 =  1.408E-11

      iter #   7 total cpu time :  2741.5 secs   av.it.:  16.6
      thresh= 3.753E-07 alpha_mix =  0.300 |ddv_scf|^2 =  3.036E-12

      iter #   8 total cpu time :  2780.0 secs   av.it.:  17.0
      thresh= 1.743E-07 alpha_mix =  0.300 |ddv_scf|^2 =  1.431E-12

      iter #   9 total cpu time :  2820.8 secs   av.it.:  15.4
      thresh= 1.196E-07 alpha_mix =  0.300 |ddv_scf|^2 =  8.937E-13

      iter #  10 total cpu time :  2861.5 secs   av.it.:  15.7
      thresh= 9.454E-08 alpha_mix =  0.300 |ddv_scf|^2 =  3.969E-13

      iter #  11 total cpu time :  2903.1 secs   av.it.:  15.4
      thresh= 6.300E-08 alpha_mix =  0.300 |ddv_scf|^2 =  5.068E-14

      iter #  12 total cpu time :  2944.3 secs   av.it.:  16.1
      thresh= 2.251E-08 alpha_mix =  0.300 |ddv_scf|^2 =  4.214E-15

     End of self-consistent calculation

     Convergence has been achieved 


     Representation #   7 mode #   7

     Self-consistent Calculation

      iter #   1 total cpu time :  3001.3 secs   av.it.:   7.8
      thresh= 1.000E-02 alpha_mix =  0.300 |ddv_scf|^2 =  1.004E-06

      iter #   2 total cpu time :  3038.4 secs   av.it.:  16.1
      thresh= 1.002E-04 alpha_mix =  0.300 |ddv_scf|^2 =  5.163E-06

      iter #   3 total cpu time :  3075.5 secs   av.it.:  14.2
      thresh= 2.272E-04 alpha_mix =  0.300 |ddv_scf|^2 =  1.028E-07

      iter #   4 total cpu time :  3112.1 secs   av.it.:  15.1
      thresh= 3.206E-05 alpha_mix =  0.300 |ddv_scf|^2 =  2.184E-09

      iter #   5 total cpu time :  3153.6 secs   av.it.:  16.4
      thresh= 4.673E-06 alpha_mix =  0.300 |ddv_scf|^2 =  2.940E-10

      iter #   6 total cpu time :  3191.9 secs   av.it.:  16.9
      thresh= 1.715E-06 alpha_mix =  0.300 |ddv_scf|^2 =  3.662E-11

      iter #   7 total cpu time :  3230.7 secs   av.it.:  16.7
      thresh= 6.052E-07 alpha_mix =  0.300 |ddv_scf|^2 =  4.732E-12

      iter #   8 total cpu time :  3271.3 secs   av.it.:  16.9
      thresh= 2.175E-07 alpha_mix =  0.300 |ddv_scf|^2 =  4.694E-12

      iter #   9 total cpu time :  3308.0 secs   av.it.:  14.8
      thresh= 2.166E-07 alpha_mix =  0.300 |ddv_scf|^2 =  1.209E-12

      iter #  10 total cpu time :  3347.7 secs   av.it.:  16.3
      thresh= 1.099E-07 alpha_mix =  0.300 |ddv_scf|^2 =  9.107E-14

      iter #  11 total cpu time :  3392.1 secs   av.it.:  16.5
      thresh= 3.018E-08 alpha_mix =  0.300 |ddv_scf|^2 =  1.467E-13

      iter #  12 total cpu time :  3428.7 secs   av.it.:  14.9
      thresh= 3.830E-08 alpha_mix =  0.300 |ddv_scf|^2 =  8.808E-15

     End of self-consistent calculation

     Convergence has been achieved 


     Representation #   8 mode #   8

     Self-consistent Calculation

      iter #   1 total cpu time :  3483.6 secs   av.it.:   7.8
      thresh= 1.000E-02 alpha_mix =  0.300 |ddv_scf|^2 =  3.658E-06

      iter #   2 total cpu time :  3516.7 secs   av.it.:  15.9
      thresh= 1.912E-04 alpha_mix =  0.300 |ddv_scf|^2 =  2.231E-05

      iter #   3 total cpu time :  3557.6 secs   av.it.:  14.1
      thresh= 4.723E-04 alpha_mix =  0.300 |ddv_scf|^2 =  1.879E-07

      iter #   4 total cpu time :  3594.0 secs   av.it.:  14.7
      thresh= 4.335E-05 alpha_mix =  0.300 |ddv_scf|^2 =  1.642E-09

      iter #   5 total cpu time :  3634.4 secs   av.it.:  16.3
      thresh= 4.053E-06 alpha_mix =  0.300 |ddv_scf|^2 =  3.928E-10

      iter #   6 total cpu time :  3673.9 secs   av.it.:  16.7
      thresh= 1.982E-06 alpha_mix =  0.300 |ddv_scf|^2 =  3.060E-11

      iter #   7 total cpu time :  3712.6 secs   av.it.:  16.3
      thresh= 5.532E-07 alpha_mix =  0.300 |ddv_scf|^2 =  4.041E-12

      iter #   8 total cpu time :  3757.4 secs   av.it.:  16.7
      thresh= 2.010E-07 alpha_mix =  0.300 |ddv_scf|^2 =  8.056E-12

      iter #   9 total cpu time :  3796.2 secs   av.it.:  14.7
      thresh= 2.838E-07 alpha_mix =  0.300 |ddv_scf|^2 =  7.067E-13

      iter #  10 total cpu time :  3837.7 secs   av.it.:  16.2
      thresh= 8.407E-08 alpha_mix =  0.300 |ddv_scf|^2 =  1.666E-13

      iter #  11 total cpu time :  3877.8 secs   av.it.:  15.8
      thresh= 4.081E-08 alpha_mix =  0.300 |ddv_scf|^2 =  2.550E-14

      iter #  12 total cpu time :  3916.9 secs   av.it.:  16.3
      thresh= 1.597E-08 alpha_mix =  0.300 |ddv_scf|^2 =  6.446E-15

     End of self-consistent calculation

     Convergence has been achieved 


     Representation #   9 mode #   9

     Self-consistent Calculation

      iter #   1 total cpu time :  3976.3 secs   av.it.:   7.7
      thresh= 1.000E-02 alpha_mix =  0.300 |ddv_scf|^2 =  1.492E-06

      iter #   2 total cpu time :  4012.9 secs   av.it.:  16.1
      thresh= 1.221E-04 alpha_mix =  0.300 |ddv_scf|^2 =  9.128E-06

      iter #   3 total cpu time :  4047.0 secs   av.it.:  14.1
      thresh= 3.021E-04 alpha_mix =  0.300 |ddv_scf|^2 =  7.870E-08

      iter #   4 total cpu time :  4082.4 secs   av.it.:  15.0
      thresh= 2.805E-05 alpha_mix =  0.300 |ddv_scf|^2 =  3.106E-09

      iter #   5 total cpu time :  4122.7 secs   av.it.:  16.4
      thresh= 5.573E-06 alpha_mix =  0.300 |ddv_scf|^2 =  1.417E-10

      iter #   6 total cpu time :  4164.3 secs   av.it.:  17.0
      thresh= 1.190E-06 alpha_mix =  0.300 |ddv_scf|^2 =  1.875E-11

      iter #   7 total cpu time :  4201.0 secs   av.it.:  16.8
      thresh= 4.331E-07 alpha_mix =  0.300 |ddv_scf|^2 =  3.576E-12

      iter #   8 total cpu time :  4237.2 secs   av.it.:  16.6
      thresh= 1.891E-07 alpha_mix =  0.300 |ddv_scf|^2 =  1.343E-11

      iter #   9 total cpu time :  4276.6 secs   av.it.:  15.0
      thresh= 3.664E-07 alpha_mix =  0.300 |ddv_scf|^2 =  8.049E-13

      iter #  10 total cpu time :  4314.8 secs   av.it.:  16.0
      thresh= 8.972E-08 alpha_mix =  0.300 |ddv_scf|^2 =  1.988E-13

      iter #  11 total cpu time :  4355.2 secs   av.it.:  15.5
      thresh= 4.459E-08 alpha_mix =  0.300 |ddv_scf|^2 =  2.735E-14

      iter #  12 total cpu time :  4399.3 secs   av.it.:  16.7
      thresh= 1.654E-08 alpha_mix =  0.300 |ddv_scf|^2 =  1.841E-14

      iter #  13 total cpu time :  4439.0 secs   av.it.:  15.7
      thresh= 1.357E-08 alpha_mix =  0.300 |ddv_scf|^2 =  3.072E-15

     End of self-consistent calculation

     Convergence has been achieved 


     Representation #  10 mode #  10

     Self-consistent Calculation

      iter #   1 total cpu time :  4495.6 secs   av.it.:   7.7
      thresh= 1.000E-02 alpha_mix =  0.300 |ddv_scf|^2 =  5.713E-07

      iter #   2 total cpu time :  4532.9 secs   av.it.:  16.3
      thresh= 7.558E-05 alpha_mix =  0.300 |ddv_scf|^2 =  3.765E-06

      iter #   3 total cpu time :  4571.0 secs   av.it.:  14.0
      thresh= 1.940E-04 alpha_mix =  0.300 |ddv_scf|^2 =  1.421E-08

      iter #   4 total cpu time :  4612.8 secs   av.it.:  16.2
      thresh= 1.192E-05 alpha_mix =  0.300 |ddv_scf|^2 =  2.137E-08

      iter #   5 total cpu time :  4649.9 secs   av.it.:  15.2
      thresh= 1.462E-05 alpha_mix =  0.300 |ddv_scf|^2 =  2.372E-10

      iter #   6 total cpu time :  4689.5 secs   av.it.:  16.9
      thresh= 1.540E-06 alpha_mix =  0.300 |ddv_scf|^2 =  2.850E-11

      iter #   7 total cpu time :  4732.0 secs   av.it.:  17.0
      thresh= 5.338E-07 alpha_mix =  0.300 |ddv_scf|^2 =  3.781E-12

      iter #   8 total cpu time :  4773.1 secs   av.it.:  16.9
      thresh= 1.944E-07 alpha_mix =  0.300 |ddv_scf|^2 =  5.593E-13

      iter #   9 total cpu time :  4815.0 secs   av.it.:  16.9
      thresh= 7.478E-08 alpha_mix =  0.300 |ddv_scf|^2 =  7.614E-13

      iter #  10 total cpu time :  4854.4 secs   av.it.:  14.8
      thresh= 8.726E-08 alpha_mix =  0.300 |ddv_scf|^2 =  1.951E-13

      iter #  11 total cpu time :  4897.2 secs   av.it.:  15.9
      thresh= 4.417E-08 alpha_mix =  0.300 |ddv_scf|^2 =  2.541E-13

      iter #  12 total cpu time :  4938.2 secs   av.it.:  15.1
      thresh= 5.041E-08 alpha_mix =  0.300 |ddv_scf|^2 =  8.106E-15

     End of self-consistent calculation

     Convergence has been achieved 


     Representation #  11 mode #  11

     Self-consistent Calculation

      iter #   1 total cpu time :  4992.1 secs   av.it.:   7.4
      thresh= 1.000E-02 alpha_mix =  0.300 |ddv_scf|^2 =  2.264E-07

      iter #   2 total cpu time :  5026.5 secs   av.it.:  16.4
      thresh= 4.758E-05 alpha_mix =  0.300 |ddv_scf|^2 =  9.969E-07

      iter #   3 total cpu time :  5062.6 secs   av.it.:  14.3
      thresh= 9.984E-05 alpha_mix =  0.300 |ddv_scf|^2 =  3.528E-08

      iter #   4 total cpu time :  5100.1 secs   av.it.:  15.1
      thresh= 1.878E-05 alpha_mix =  0.300 |ddv_scf|^2 =  9.195E-09

      iter #   5 total cpu time :  5138.1 secs   av.it.:  15.7
      thresh= 9.589E-06 alpha_mix =  0.300 |ddv_scf|^2 =  3.376E-10

      iter #   6 total cpu time :  5180.7 secs   av.it.:  16.5
      thresh= 1.837E-06 alpha_mix =  0.300 |ddv_scf|^2 =  1.643E-11

      iter #   7 total cpu time :  5219.3 secs   av.it.:  16.5
      thresh= 4.054E-07 alpha_mix =  0.300 |ddv_scf|^2 =  3.079E-12

      iter #   8 total cpu time :  5263.4 secs   av.it.:  16.8
      thresh= 1.755E-07 alpha_mix =  0.300 |ddv_scf|^2 =  1.144E-11

      iter #   9 total cpu time :  5300.9 secs   av.it.:  14.6
      thresh= 3.383E-07 alpha_mix =  0.300 |ddv_scf|^2 =  3.052E-13

      iter #  10 total cpu time :  5344.3 secs   av.it.:  16.5
      thresh= 5.524E-08 alpha_mix =  0.300 |ddv_scf|^2 =  1.036E-13

      iter #  11 total cpu time :  5384.7 secs   av.it.:  16.0
      thresh= 3.219E-08 alpha_mix =  0.300 |ddv_scf|^2 =  8.391E-15

     End of self-consistent calculation

     Convergence has been achieved 


     Representation #  12 mode #  12

     Self-consistent Calculation

      iter #   1 total cpu time :  5443.8 secs   av.it.:   7.7
      thresh= 1.000E-02 alpha_mix =  0.300 |ddv_scf|^2 =  1.687E-06

      iter #   2 total cpu time :  5479.0 secs   av.it.:  16.0
      thresh= 1.299E-04 alpha_mix =  0.300 |ddv_scf|^2 =  9.797E-06

      iter #   3 total cpu time :  5511.9 secs   av.it.:  14.1
      thresh= 3.130E-04 alpha_mix =  0.300 |ddv_scf|^2 =  1.157E-07

      iter #   4 total cpu time :  5545.2 secs   av.it.:  14.9
      thresh= 3.402E-05 alpha_mix =  0.300 |ddv_scf|^2 =  2.273E-09

      iter #   5 total cpu time :  5581.5 secs   av.it.:  16.6
      thresh= 4.768E-06 alpha_mix =  0.300 |ddv_scf|^2 =  1.458E-10

      iter #   6 total cpu time :  5616.5 secs   av.it.:  16.9
      thresh= 1.208E-06 alpha_mix =  0.300 |ddv_scf|^2 =  1.602E-11

      iter #   7 total cpu time :  5656.8 secs   av.it.:  16.9
      thresh= 4.002E-07 alpha_mix =  0.300 |ddv_scf|^2 =  3.287E-12

      iter #   8 total cpu time :  5696.4 secs   av.it.:  16.9
      thresh= 1.813E-07 alpha_mix =  0.300 |ddv_scf|^2 =  1.418E-11

      iter #   9 total cpu time :  5734.5 secs   av.it.:  14.7
      thresh= 3.766E-07 alpha_mix =  0.300 |ddv_scf|^2 =  2.273E-13

      iter #  10 total cpu time :  5772.7 secs   av.it.:  16.7
      thresh= 4.767E-08 alpha_mix =  0.300 |ddv_scf|^2 =  7.074E-13

      iter #  11 total cpu time :  5812.3 secs   av.it.:  14.4
      thresh= 8.410E-08 alpha_mix =  0.300 |ddv_scf|^2 =  4.497E-14

      iter #  12 total cpu time :  5852.4 secs   av.it.:  16.5
      thresh= 2.121E-08 alpha_mix =  0.300 |ddv_scf|^2 =  1.998E-14

      iter #  13 total cpu time :  5889.6 secs   av.it.:  15.9
      thresh= 1.414E-08 alpha_mix =  0.300 |ddv_scf|^2 =  2.436E-15

     End of self-consistent calculation

     Convergence has been achieved 


     Representation #  13 mode #  13

     Self-consistent Calculation

      iter #   1 total cpu time :  5948.6 secs   av.it.:   7.7
      thresh= 1.000E-02 alpha_mix =  0.300 |ddv_scf|^2 =  3.066E-06

      iter #   2 total cpu time :  5980.8 secs   av.it.:  15.8
      thresh= 1.751E-04 alpha_mix =  0.300 |ddv_scf|^2 =  1.909E-05

      iter #   3 total cpu time :  6014.7 secs   av.it.:  14.1
      thresh= 4.369E-04 alpha_mix =  0.300 |ddv_scf|^2 =  1.449E-07

      iter #   4 total cpu time :  6056.9 secs   av.it.:  14.8
      thresh= 3.807E-05 alpha_mix =  0.300 |ddv_scf|^2 =  3.974E-09

      iter #   5 total cpu time :  6095.4 secs   av.it.:  15.6
      thresh= 6.304E-06 alpha_mix =  0.300 |ddv_scf|^2 =  3.350E-10

      iter #   6 total cpu time :  6135.2 secs   av.it.:  17.0
      thresh= 1.830E-06 alpha_mix =  0.300 |ddv_scf|^2 =  1.478E-11

      iter #   7 total cpu time :  6173.8 secs   av.it.:  16.6
      thresh= 3.844E-07 alpha_mix =  0.300 |ddv_scf|^2 =  4.563E-12

      iter #   8 total cpu time :  6212.9 secs   av.it.:  16.9
      thresh= 2.136E-07 alpha_mix =  0.300 |ddv_scf|^2 =  1.889E-12

      iter #   9 total cpu time :  6248.9 secs   av.it.:  15.3
      thresh= 1.374E-07 alpha_mix =  0.300 |ddv_scf|^2 =  1.010E-12

      iter #  10 total cpu time :  6287.4 secs   av.it.:  15.6
      thresh= 1.005E-07 alpha_mix =  0.300 |ddv_scf|^2 =  6.991E-14

      iter #  11 total cpu time :  6328.6 secs   av.it.:  16.9
      thresh= 2.644E-08 alpha_mix =  0.300 |ddv_scf|^2 =  3.092E-14

      iter #  12 total cpu time :  6366.3 secs   av.it.:  16.0
      thresh= 1.758E-08 alpha_mix =  0.300 |ddv_scf|^2 =  5.118E-14

      iter #  13 total cpu time :  6402.0 secs   av.it.:  14.8
      thresh= 2.262E-08 alpha_mix =  0.300 |ddv_scf|^2 =  2.793E-15

     End of self-consistent calculation

     Convergence has been achieved 


     Representation #  14 mode #  14

     Self-consistent Calculation

      iter #   1 total cpu time :  6454.4 secs   av.it.:   7.8
      thresh= 1.000E-02 alpha_mix =  0.300 |ddv_scf|^2 =  2.630E-06

      iter #   2 total cpu time :  6488.0 secs   av.it.:  15.9
      thresh= 1.622E-04 alpha_mix =  0.300 |ddv_scf|^2 =  1.211E-05

      iter #   3 total cpu time :  6520.8 secs   av.it.:  14.2
      thresh= 3.480E-04 alpha_mix =  0.300 |ddv_scf|^2 =  3.841E-07

      iter #   4 total cpu time :  6554.7 secs   av.it.:  14.7
      thresh= 6.198E-05 alpha_mix =  0.300 |ddv_scf|^2 =  1.295E-09

      iter #   5 total cpu time :  6588.2 secs   av.it.:  16.6
      thresh= 3.598E-06 alpha_mix =  0.300 |ddv_scf|^2 =  2.156E-10

      iter #   6 total cpu time :  6624.8 secs   av.it.:  17.0
      thresh= 1.468E-06 alpha_mix =  0.300 |ddv_scf|^2 =  1.714E-11

      iter #   7 total cpu time :  6656.8 secs   av.it.:  16.8
      thresh= 4.140E-07 alpha_mix =  0.300 |ddv_scf|^2 =  2.725E-12

      iter #   8 total cpu time :  6692.9 secs   av.it.:  16.8
      thresh= 1.651E-07 alpha_mix =  0.300 |ddv_scf|^2 =  1.833E-12

      iter #   9 total cpu time :  6728.9 secs   av.it.:  15.2
      thresh= 1.354E-07 alpha_mix =  0.300 |ddv_scf|^2 =  2.196E-12

      iter #  10 total cpu time :  6765.7 secs   av.it.:  15.3
      thresh= 1.482E-07 alpha_mix =  0.300 |ddv_scf|^2 =  6.187E-13

      iter #  11 total cpu time :  6802.8 secs   av.it.:  15.5
      thresh= 7.866E-08 alpha_mix =  0.300 |ddv_scf|^2 =  2.775E-14

      iter #  12 total cpu time :  6841.0 secs   av.it.:  16.4
      thresh= 1.666E-08 alpha_mix =  0.300 |ddv_scf|^2 =  6.362E-15

     End of self-consistent calculation

     Convergence has been achieved 


     Representation #  15 mode #  15

     Self-consistent Calculation

      iter #   1 total cpu time :  6891.9 secs   av.it.:   7.7
      thresh= 1.000E-02 alpha_mix =  0.300 |ddv_scf|^2 =  3.487E-06

      iter #   2 total cpu time :  6922.3 secs   av.it.:  15.9
      thresh= 1.867E-04 alpha_mix =  0.300 |ddv_scf|^2 =  2.248E-05

      iter #   3 total cpu time :  6954.7 secs   av.it.:  14.0
      thresh= 4.741E-04 alpha_mix =  0.300 |ddv_scf|^2 =  1.301E-07

      iter #   4 total cpu time :  6987.8 secs   av.it.:  14.7
      thresh= 3.607E-05 alpha_mix =  0.300 |ddv_scf|^2 =  2.646E-09

      iter #   5 total cpu time :  7023.0 secs   av.it.:  16.1
      thresh= 5.144E-06 alpha_mix =  0.300 |ddv_scf|^2 =  3.268E-10

      iter #   6 total cpu time :  7060.6 secs   av.it.:  16.8
      thresh= 1.808E-06 alpha_mix =  0.300 |ddv_scf|^2 =  4.302E-11

      iter #   7 total cpu time :  7100.6 secs   av.it.:  16.3
      thresh= 6.559E-07 alpha_mix =  0.300 |ddv_scf|^2 =  3.304E-12

      iter #   8 total cpu time :  7134.6 secs   av.it.:  16.7
      thresh= 1.818E-07 alpha_mix =  0.300 |ddv_scf|^2 =  9.841E-12

      iter #   9 total cpu time :  7174.0 secs   av.it.:  14.5
      thresh= 3.137E-07 alpha_mix =  0.300 |ddv_scf|^2 =  1.272E-12

      iter #  10 total cpu time :  7212.3 secs   av.it.:  16.0
      thresh= 1.128E-07 alpha_mix =  0.300 |ddv_scf|^2 =  1.570E-13

      iter #  11 total cpu time :  7256.7 secs   av.it.:  16.0
      thresh= 3.962E-08 alpha_mix =  0.300 |ddv_scf|^2 =  2.780E-14

      iter #  12 total cpu time :  7294.6 secs   av.it.:  16.4
      thresh= 1.667E-08 alpha_mix =  0.300 |ddv_scf|^2 =  6.814E-15

     End of self-consistent calculation

     Convergence has been achieved 


     Representation #  16 mode #  16

     Self-consistent Calculation

      iter #   1 total cpu time :  7346.6 secs   av.it.:   7.8
      thresh= 1.000E-02 alpha_mix =  0.300 |ddv_scf|^2 =  6.431E-07

      iter #   2 total cpu time :  7380.3 secs   av.it.:  16.2
      thresh= 8.019E-05 alpha_mix =  0.300 |ddv_scf|^2 =  3.334E-06

      iter #   3 total cpu time :  7414.3 secs   av.it.:  14.2
      thresh= 1.826E-04 alpha_mix =  0.300 |ddv_scf|^2 =  6.469E-08

      iter #   4 total cpu time :  7449.4 secs   av.it.:  15.2
      thresh= 2.543E-05 alpha_mix =  0.300 |ddv_scf|^2 =  5.111E-09

      iter #   5 total cpu time :  7490.7 secs   av.it.:  16.2
      thresh= 7.149E-06 alpha_mix =  0.300 |ddv_scf|^2 =  5.441E-10

      iter #   6 total cpu time :  7530.9 secs   av.it.:  16.5
      thresh= 2.333E-06 alpha_mix =  0.300 |ddv_scf|^2 =  3.260E-11

      iter #   7 total cpu time :  7575.5 secs   av.it.:  17.0
      thresh= 5.710E-07 alpha_mix =  0.300 |ddv_scf|^2 =  7.530E-12

      iter #   8 total cpu time :  7618.7 secs   av.it.:  16.7
      thresh= 2.744E-07 alpha_mix =  0.300 |ddv_scf|^2 =  3.628E-12

      iter #   9 total cpu time :  7654.2 secs   av.it.:  14.4
      thresh= 1.905E-07 alpha_mix =  0.300 |ddv_scf|^2 =  3.948E-13

      iter #  10 total cpu time :  7695.0 secs   av.it.:  16.2
      thresh= 6.284E-08 alpha_mix =  0.300 |ddv_scf|^2 =  2.567E-13

      iter #  11 total cpu time :  7735.8 secs   av.it.:  16.2
      thresh= 5.067E-08 alpha_mix =  0.300 |ddv_scf|^2 =  6.876E-14

      iter #  12 total cpu time :  7775.1 secs   av.it.:  16.0
      thresh= 2.622E-08 alpha_mix =  0.300 |ddv_scf|^2 =  3.219E-14

      iter #  13 total cpu time :  7811.6 secs   av.it.:  15.7
      thresh= 1.794E-08 alpha_mix =  0.300 |ddv_scf|^2 =  2.667E-15

     End of self-consistent calculation

     Convergence has been achieved 


     Representation #  17 mode #  17

     Self-consistent Calculation

      iter #   1 total cpu time :  7863.8 secs   av.it.:   7.8
      thresh= 1.000E-02 alpha_mix =  0.300 |ddv_scf|^2 =  2.096E-06

      iter #   2 total cpu time :  7894.6 secs   av.it.:  15.9
      thresh= 1.448E-04 alpha_mix =  0.300 |ddv_scf|^2 =  1.394E-05

      iter #   3 total cpu time :  7930.1 secs   av.it.:  14.0
      thresh= 3.733E-04 alpha_mix =  0.300 |ddv_scf|^2 =  5.677E-08

      iter #   4 total cpu time :  7962.2 secs   av.it.:  15.5
      thresh= 2.383E-05 alpha_mix =  0.300 |ddv_scf|^2 =  3.298E-09

      iter #   5 total cpu time :  8000.1 secs   av.it.:  16.4
      thresh= 5.743E-06 alpha_mix =  0.300 |ddv_scf|^2 =  7.624E-10

      iter #   6 total cpu time :  8035.2 secs   av.it.:  15.9
      thresh= 2.761E-06 alpha_mix =  0.300 |ddv_scf|^2 =  3.713E-11

      iter #   7 total cpu time :  8074.5 secs   av.it.:  16.8
      thresh= 6.093E-07 alpha_mix =  0.300 |ddv_scf|^2 =  6.381E-12

      iter #   8 total cpu time :  8112.6 secs   av.it.:  16.4
      thresh= 2.526E-07 alpha_mix =  0.300 |ddv_scf|^2 =  3.441E-13

      iter #   9 total cpu time :  8155.3 secs   av.it.:  16.8
      thresh= 5.866E-08 alpha_mix =  0.300 |ddv_scf|^2 =  2.195E-13

      iter #  10 total cpu time :  8197.7 secs   av.it.:  15.3
      thresh= 4.685E-08 alpha_mix =  0.300 |ddv_scf|^2 =  1.282E-13

      iter #  11 total cpu time :  8237.7 secs   av.it.:  15.6
      thresh= 3.581E-08 alpha_mix =  0.300 |ddv_scf|^2 =  1.911E-14

      iter #  12 total cpu time :  8276.8 secs   av.it.:  16.7
      thresh= 1.382E-08 alpha_mix =  0.300 |ddv_scf|^2 =  2.936E-15

     End of self-consistent calculation

     Convergence has been achieved 


     Representation #  18 mode #  18

     Self-consistent Calculation

      iter #   1 total cpu time :  8331.3 secs   av.it.:   8.1
      thresh= 1.000E-02 alpha_mix =  0.300 |ddv_scf|^2 =  8.260E-06

      iter #   2 total cpu time :  8363.6 secs   av.it.:  15.8
      thresh= 2.874E-04 alpha_mix =  0.300 |ddv_scf|^2 =  5.534E-05

      iter #   3 total cpu time :  8397.3 secs   av.it.:  14.0
      thresh= 7.439E-04 alpha_mix =  0.300 |ddv_scf|^2 =  2.335E-07

      iter #   4 total cpu time :  8431.2 secs   av.it.:  14.5
      thresh= 4.832E-05 alpha_mix =  0.300 |ddv_scf|^2 =  2.243E-09

      iter #   5 total cpu time :  8466.4 secs   av.it.:  16.3
      thresh= 4.736E-06 alpha_mix =  0.300 |ddv_scf|^2 =  5.939E-10

      iter #   6 total cpu time :  8505.3 secs   av.it.:  16.4
      thresh= 2.437E-06 alpha_mix =  0.300 |ddv_scf|^2 =  4.618E-11

      iter #   7 total cpu time :  8548.8 secs   av.it.:  16.6
      thresh= 6.795E-07 alpha_mix =  0.300 |ddv_scf|^2 =  3.077E-12

      iter #   8 total cpu time :  8590.4 secs   av.it.:  16.8
      thresh= 1.754E-07 alpha_mix =  0.300 |ddv_scf|^2 =  5.887E-12

      iter #   9 total cpu time :  8629.8 secs   av.it.:  14.7
      thresh= 2.426E-07 alpha_mix =  0.300 |ddv_scf|^2 =  1.901E-12

      iter #  10 total cpu time :  8671.9 secs   av.it.:  16.3
      thresh= 1.379E-07 alpha_mix =  0.300 |ddv_scf|^2 =  1.582E-13

      iter #  11 total cpu time :  8713.3 secs   av.it.:  15.5
      thresh= 3.978E-08 alpha_mix =  0.300 |ddv_scf|^2 =  4.008E-14

      iter #  12 total cpu time :  8750.9 secs   av.it.:  16.1
      thresh= 2.002E-08 alpha_mix =  0.300 |ddv_scf|^2 =  4.756E-15

     End of self-consistent calculation

     Convergence has been achieved 


     Representation #  19 mode #  19

     Self-consistent Calculation

      iter #   1 total cpu time :  8804.5 secs   av.it.:  11.5
      thresh= 1.000E-02 alpha_mix =  0.300 |ddv_scf|^2 =  9.083E-05

      iter #   2 total cpu time :  8837.7 secs   av.it.:  15.7
      thresh= 9.530E-04 alpha_mix =  0.300 |ddv_scf|^2 =  3.937E-04

      iter #   3 total cpu time :  8870.9 secs   av.it.:  14.2
      thresh= 1.984E-03 alpha_mix =  0.300 |ddv_scf|^2 =  1.494E-05

      iter #   4 total cpu time :  8904.6 secs   av.it.:  14.6
      thresh= 3.866E-04 alpha_mix =  0.300 |ddv_scf|^2 =  3.910E-07

      iter #   5 total cpu time :  8940.9 secs   av.it.:  14.9
      thresh= 6.253E-05 alpha_mix =  0.300 |ddv_scf|^2 =  3.127E-08

      iter #   6 total cpu time :  8977.4 secs   av.it.:  15.4
      thresh= 1.768E-05 alpha_mix =  0.300 |ddv_scf|^2 =  8.780E-10

      iter #   7 total cpu time :  9014.9 secs   av.it.:  15.7
      thresh= 2.963E-06 alpha_mix =  0.300 |ddv_scf|^2 =  2.493E-10

      iter #   8 total cpu time :  9058.3 secs   av.it.:  16.1
      thresh= 1.579E-06 alpha_mix =  0.300 |ddv_scf|^2 =  1.239E-11

      iter #   9 total cpu time :  9096.4 secs   av.it.:  16.5
      thresh= 3.520E-07 alpha_mix =  0.300 |ddv_scf|^2 =  2.432E-11

      iter #  10 total cpu time :  9133.5 secs   av.it.:  15.5
      thresh= 4.931E-07 alpha_mix =  0.300 |ddv_scf|^2 =  3.502E-12

      iter #  11 total cpu time :  9168.9 secs   av.it.:  15.6
      thresh= 1.871E-07 alpha_mix =  0.300 |ddv_scf|^2 =  8.486E-14

      iter #  12 total cpu time :  9205.7 secs   av.it.:  16.6
      thresh= 2.913E-08 alpha_mix =  0.300 |ddv_scf|^2 =  1.950E-14

      iter #  13 total cpu time :  9246.5 secs   av.it.:  16.2
      thresh= 1.396E-08 alpha_mix =  0.300 |ddv_scf|^2 =  4.080E-15

     End of self-consistent calculation

     Convergence has been achieved 


     Representation #  20 mode #  20

     Self-consistent Calculation

      iter #   1 total cpu time :  9298.8 secs   av.it.:   7.7
      thresh= 1.000E-02 alpha_mix =  0.300 |ddv_scf|^2 =  2.042E-06

      iter #   2 total cpu time :  9329.5 secs   av.it.:  15.9
      thresh= 1.429E-04 alpha_mix =  0.300 |ddv_scf|^2 =  1.213E-05

      iter #   3 total cpu time :  9358.8 secs   av.it.:  14.1
      thresh= 3.483E-04 alpha_mix =  0.300 |ddv_scf|^2 =  1.216E-07

      iter #   4 total cpu time :  9391.5 secs   av.it.:  15.0
      thresh= 3.487E-05 alpha_mix =  0.300 |ddv_scf|^2 =  1.433E-09

      iter #   5 total cpu time :  9427.3 secs   av.it.:  16.8
      thresh= 3.785E-06 alpha_mix =  0.300 |ddv_scf|^2 =  1.555E-10

      iter #   6 total cpu time :  9460.1 secs   av.it.:  17.0
      thresh= 1.247E-06 alpha_mix =  0.300 |ddv_scf|^2 =  1.825E-11

      iter #   7 total cpu time :  9493.0 secs   av.it.:  17.0
      thresh= 4.272E-07 alpha_mix =  0.300 |ddv_scf|^2 =  2.498E-12

      iter #   8 total cpu time :  9530.9 secs   av.it.:  17.0
      thresh= 1.580E-07 alpha_mix =  0.300 |ddv_scf|^2 =  8.419E-12

      iter #   9 total cpu time :  9566.0 secs   av.it.:  14.2
      thresh= 2.902E-07 alpha_mix =  0.300 |ddv_scf|^2 =  2.073E-12

      iter #  10 total cpu time :  9599.6 secs   av.it.:  15.8
      thresh= 1.440E-07 alpha_mix =  0.300 |ddv_scf|^2 =  1.644E-13

      iter #  11 total cpu time :  9631.7 secs   av.it.:  15.8
      thresh= 4.055E-08 alpha_mix =  0.300 |ddv_scf|^2 =  3.074E-14

      iter #  12 total cpu time :  9669.5 secs   av.it.:  16.6
      thresh= 1.753E-08 alpha_mix =  0.300 |ddv_scf|^2 =  1.012E-14

      iter #  13 total cpu time :  9703.7 secs   av.it.:  16.1
      thresh= 1.006E-08 alpha_mix =  0.300 |ddv_scf|^2 =  6.405E-15

     End of self-consistent calculation

     Convergence has been achieved 


     Representation #  21 mode #  21

     Self-consistent Calculation

      iter #   1 total cpu time :  9757.2 secs   av.it.:   7.1
      thresh= 1.000E-02 alpha_mix =  0.300 |ddv_scf|^2 =  1.494E-08

      iter #   2 total cpu time :  9787.1 secs   av.it.:  16.1
      thresh= 1.222E-05 alpha_mix =  0.300 |ddv_scf|^2 =  3.364E-09

      iter #   3 total cpu time :  9821.0 secs   av.it.:  16.7
      thresh= 5.800E-06 alpha_mix =  0.300 |ddv_scf|^2 =  2.122E-10

      iter #   4 total cpu time :  9854.4 secs   av.it.:  17.1
      thresh= 1.457E-06 alpha_mix =  0.300 |ddv_scf|^2 =  8.522E-12

      iter #   5 total cpu time :  9887.0 secs   av.it.:  16.9
      thresh= 2.919E-07 alpha_mix =  0.300 |ddv_scf|^2 =  5.259E-13

      iter #   6 total cpu time :  9921.4 secs   av.it.:  16.5
      thresh= 7.252E-08 alpha_mix =  0.300 |ddv_scf|^2 =  1.165E-13

      iter #   7 total cpu time :  9954.1 secs   av.it.:  17.0
      thresh= 3.413E-08 alpha_mix =  0.300 |ddv_scf|^2 =  2.223E-15

     End of self-consistent calculation

     Convergence has been achieved 


     Representation #  22 mode #  22

     Self-consistent Calculation

      iter #   1 total cpu time : 10000.7 secs   av.it.:   7.1
      thresh= 1.000E-02 alpha_mix =  0.300 |ddv_scf|^2 =  1.322E-08

      iter #   2 total cpu time : 10030.6 secs   av.it.:  16.1
      thresh= 1.150E-05 alpha_mix =  0.300 |ddv_scf|^2 =  3.210E-09

      iter #   3 total cpu time : 10063.8 secs   av.it.:  16.7
      thresh= 5.666E-06 alpha_mix =  0.300 |ddv_scf|^2 =  1.995E-10

      iter #   4 total cpu time : 10097.6 secs   av.it.:  17.1
      thresh= 1.412E-06 alpha_mix =  0.300 |ddv_scf|^2 =  8.399E-12

      iter #   5 total cpu time : 10134.0 secs   av.it.:  16.9
      thresh= 2.898E-07 alpha_mix =  0.300 |ddv_scf|^2 =  5.196E-13

      iter #   6 total cpu time : 10167.5 secs   av.it.:  16.5
      thresh= 7.208E-08 alpha_mix =  0.300 |ddv_scf|^2 =  1.155E-13

      iter #   7 total cpu time : 10204.8 secs   av.it.:  17.1
      thresh= 3.399E-08 alpha_mix =  0.300 |ddv_scf|^2 =  1.023E-15

     End of self-consistent calculation

     Convergence has been achieved 


     Representation #  23 mode #  23

     Self-consistent Calculation

      iter #   1 total cpu time : 10257.6 secs   av.it.:   6.9
      thresh= 1.000E-02 alpha_mix =  0.300 |ddv_scf|^2 =  1.231E-08

      iter #   2 total cpu time : 10287.6 secs   av.it.:  16.1
      thresh= 1.110E-05 alpha_mix =  0.300 |ddv_scf|^2 =  2.614E-09

      iter #   3 total cpu time : 10320.9 secs   av.it.:  16.6
      thresh= 5.112E-06 alpha_mix =  0.300 |ddv_scf|^2 =  1.677E-10

      iter #   4 total cpu time : 10352.5 secs   av.it.:  17.0
      thresh= 1.295E-06 alpha_mix =  0.300 |ddv_scf|^2 =  6.948E-12

      iter #   5 total cpu time : 10386.0 secs   av.it.:  16.8
      thresh= 2.636E-07 alpha_mix =  0.300 |ddv_scf|^2 =  5.585E-13

      iter #   6 total cpu time : 10423.0 secs   av.it.:  16.7
      thresh= 7.473E-08 alpha_mix =  0.300 |ddv_scf|^2 =  1.132E-13

      iter #   7 total cpu time : 10463.5 secs   av.it.:  16.9
      thresh= 3.364E-08 alpha_mix =  0.300 |ddv_scf|^2 =  2.916E-15

     End of self-consistent calculation

     Convergence has been achieved 


     Representation #  24 mode #  24

     Self-consistent Calculation

      iter #   1 total cpu time : 10517.7 secs   av.it.:   7.2
      thresh= 1.000E-02 alpha_mix =  0.300 |ddv_scf|^2 =  3.801E-08

      iter #   2 total cpu time : 10547.6 secs   av.it.:  15.9
      thresh= 1.950E-05 alpha_mix =  0.300 |ddv_scf|^2 =  6.489E-09

      iter #   3 total cpu time : 10585.2 secs   av.it.:  16.6
      thresh= 8.055E-06 alpha_mix =  0.300 |ddv_scf|^2 =  2.330E-10

      iter #   4 total cpu time : 10620.2 secs   av.it.:  17.1
      thresh= 1.526E-06 alpha_mix =  0.300 |ddv_scf|^2 =  1.248E-11

      iter #   5 total cpu time : 10656.2 secs   av.it.:  17.0
      thresh= 3.533E-07 alpha_mix =  0.300 |ddv_scf|^2 =  7.171E-13

      iter #   6 total cpu time : 10691.7 secs   av.it.:  16.5
      thresh= 8.468E-08 alpha_mix =  0.300 |ddv_scf|^2 =  1.494E-13

      iter #   7 total cpu time : 10734.4 secs   av.it.:  16.9
      thresh= 3.866E-08 alpha_mix =  0.300 |ddv_scf|^2 =  5.356E-15

     End of self-consistent calculation

     Convergence has been achieved 


     Representation #  25 mode #  25

     Self-consistent Calculation

      iter #   1 total cpu time : 10784.6 secs   av.it.:   7.2
      thresh= 1.000E-02 alpha_mix =  0.300 |ddv_scf|^2 =  3.331E-08

      iter #   2 total cpu time : 10816.8 secs   av.it.:  15.9
      thresh= 1.825E-05 alpha_mix =  0.300 |ddv_scf|^2 =  5.943E-09

      iter #   3 total cpu time : 10851.1 secs   av.it.:  16.6
      thresh= 7.709E-06 alpha_mix =  0.300 |ddv_scf|^2 =  2.152E-10

      iter #   4 total cpu time : 10887.8 secs   av.it.:  16.9
      thresh= 1.467E-06 alpha_mix =  0.300 |ddv_scf|^2 =  1.360E-11

      iter #   5 total cpu time : 10929.6 secs   av.it.:  16.9
      thresh= 3.688E-07 alpha_mix =  0.300 |ddv_scf|^2 =  6.562E-13

      iter #   6 total cpu time : 10968.3 secs   av.it.:  16.5
      thresh= 8.101E-08 alpha_mix =  0.300 |ddv_scf|^2 =  1.182E-13

      iter #   7 total cpu time : 11007.1 secs   av.it.:  16.9
      thresh= 3.438E-08 alpha_mix =  0.300 |ddv_scf|^2 =  5.538E-15

     End of self-consistent calculation

     Convergence has been achieved 


     Representation #  26 mode #  26

     Self-consistent Calculation

      iter #   1 total cpu time : 11052.3 secs   av.it.:   7.2
      thresh= 1.000E-02 alpha_mix =  0.300 |ddv_scf|^2 =  3.331E-08

      iter #   2 total cpu time : 11082.3 secs   av.it.:  15.9
      thresh= 1.825E-05 alpha_mix =  0.300 |ddv_scf|^2 =  5.943E-09

      iter #   3 total cpu time : 11118.5 secs   av.it.:  16.6
      thresh= 7.709E-06 alpha_mix =  0.300 |ddv_scf|^2 =  2.152E-10

      iter #   4 total cpu time : 11156.4 secs   av.it.:  16.9
      thresh= 1.467E-06 alpha_mix =  0.300 |ddv_scf|^2 =  1.360E-11

      iter #   5 total cpu time : 11193.4 secs   av.it.:  16.9
      thresh= 3.688E-07 alpha_mix =  0.300 |ddv_scf|^2 =  6.562E-13

      iter #   6 total cpu time : 11227.1 secs   av.it.:  16.5
      thresh= 8.101E-08 alpha_mix =  0.300 |ddv_scf|^2 =  1.182E-13

      iter #   7 total cpu time : 11260.9 secs   av.it.:  16.9
      thresh= 3.438E-08 alpha_mix =  0.300 |ddv_scf|^2 =  5.538E-15

     End of self-consistent calculation

     Convergence has been achieved 


     Representation #  27 mode #  27

     Self-consistent Calculation

      iter #   1 total cpu time : 11314.7 secs   av.it.:   7.3
      thresh= 1.000E-02 alpha_mix =  0.300 |ddv_scf|^2 =  3.703E-08

      iter #   2 total cpu time : 11344.8 secs   av.it.:  15.9
      thresh= 1.924E-05 alpha_mix =  0.300 |ddv_scf|^2 =  6.501E-09

      iter #   3 total cpu time : 11377.8 secs   av.it.:  16.6
      thresh= 8.063E-06 alpha_mix =  0.300 |ddv_scf|^2 =  2.230E-10

      iter #   4 total cpu time : 11413.2 secs   av.it.:  17.0
      thresh= 1.493E-06 alpha_mix =  0.300 |ddv_scf|^2 =  1.293E-11

      iter #   5 total cpu time : 11444.9 secs   av.it.:  17.0
      thresh= 3.596E-07 alpha_mix =  0.300 |ddv_scf|^2 =  6.697E-13

      iter #   6 total cpu time : 11477.8 secs   av.it.:  16.4
      thresh= 8.183E-08 alpha_mix =  0.300 |ddv_scf|^2 =  1.571E-13

      iter #   7 total cpu time : 11513.2 secs   av.it.:  16.9
      thresh= 3.963E-08 alpha_mix =  0.300 |ddv_scf|^2 =  6.236E-15

     End of self-consistent calculation

     Convergence has been achieved 


     Representation #  28 mode #  28

     Self-consistent Calculation

      iter #   1 total cpu time : 11560.5 secs   av.it.:   6.8
      thresh= 1.000E-02 alpha_mix =  0.300 |ddv_scf|^2 =  6.417E-09

      iter #   2 total cpu time : 11596.6 secs   av.it.:  16.2
      thresh= 8.011E-06 alpha_mix =  0.300 |ddv_scf|^2 =  1.661E-09

      iter #   3 total cpu time : 11633.0 secs   av.it.:  16.7
      thresh= 4.076E-06 alpha_mix =  0.300 |ddv_scf|^2 =  1.198E-10

      iter #   4 total cpu time : 11675.6 secs   av.it.:  16.9
      thresh= 1.094E-06 alpha_mix =  0.300 |ddv_scf|^2 =  4.516E-12

      iter #   5 total cpu time : 11721.2 secs   av.it.:  16.7
      thresh= 2.125E-07 alpha_mix =  0.300 |ddv_scf|^2 =  5.603E-13

      iter #   6 total cpu time : 11763.4 secs   av.it.:  16.9
      thresh= 7.486E-08 alpha_mix =  0.300 |ddv_scf|^2 =  8.534E-14

      iter #   7 total cpu time : 11804.6 secs   av.it.:  16.9
      thresh= 2.921E-08 alpha_mix =  0.300 |ddv_scf|^2 =  2.765E-15

     End of self-consistent calculation

     Convergence has been achieved 


     Representation #  29 mode #  29

     Self-consistent Calculation

      iter #   1 total cpu time : 11861.3 secs   av.it.:   7.2
      thresh= 1.000E-02 alpha_mix =  0.300 |ddv_scf|^2 =  3.801E-08

      iter #   2 total cpu time : 11897.0 secs   av.it.:  15.9
      thresh= 1.950E-05 alpha_mix =  0.300 |ddv_scf|^2 =  6.489E-09

      iter #   3 total cpu time : 11935.8 secs   av.it.:  16.6
      thresh= 8.055E-06 alpha_mix =  0.300 |ddv_scf|^2 =  2.330E-10

      iter #   4 total cpu time : 11972.3 secs   av.it.:  17.1
      thresh= 1.526E-06 alpha_mix =  0.300 |ddv_scf|^2 =  1.248E-11

      iter #   5 total cpu time : 12018.1 secs   av.it.:  17.0
      thresh= 3.533E-07 alpha_mix =  0.300 |ddv_scf|^2 =  7.171E-13

      iter #   6 total cpu time : 12051.8 secs   av.it.:  16.5
      thresh= 8.468E-08 alpha_mix =  0.300 |ddv_scf|^2 =  1.494E-13

      iter #   7 total cpu time : 12091.7 secs   av.it.:  16.9
      thresh= 3.866E-08 alpha_mix =  0.300 |ddv_scf|^2 =  5.356E-15

     End of self-consistent calculation

     Convergence has been achieved 


     Representation #  30 mode #  30

     Self-consistent Calculation

      iter #   1 total cpu time : 12144.1 secs   av.it.:   7.3
      thresh= 1.000E-02 alpha_mix =  0.300 |ddv_scf|^2 =  3.703E-08

      iter #   2 total cpu time : 12181.8 secs   av.it.:  15.9
      thresh= 1.924E-05 alpha_mix =  0.300 |ddv_scf|^2 =  6.501E-09

      iter #   3 total cpu time : 12218.3 secs   av.it.:  16.6
      thresh= 8.063E-06 alpha_mix =  0.300 |ddv_scf|^2 =  2.230E-10

      iter #   4 total cpu time : 12252.7 secs   av.it.:  17.1
      thresh= 1.493E-06 alpha_mix =  0.300 |ddv_scf|^2 =  1.293E-11

      iter #   5 total cpu time : 12289.8 secs   av.it.:  17.0
      thresh= 3.596E-07 alpha_mix =  0.300 |ddv_scf|^2 =  6.697E-13

      iter #   6 total cpu time : 12331.0 secs   av.it.:  16.4
      thresh= 8.183E-08 alpha_mix =  0.300 |ddv_scf|^2 =  1.571E-13

      iter #   7 total cpu time : 12368.5 secs   av.it.:  16.9
      thresh= 3.963E-08 alpha_mix =  0.300 |ddv_scf|^2 =  6.236E-15

     End of self-consistent calculation

     Convergence has been achieved 


     Representation #  31 mode #  31

     Self-consistent Calculation

      iter #   1 total cpu time : 12424.0 secs   av.it.:   6.9
      thresh= 1.000E-02 alpha_mix =  0.300 |ddv_scf|^2 =  8.618E-09

      iter #   2 total cpu time : 12463.1 secs   av.it.:  16.2
      thresh= 9.283E-06 alpha_mix =  0.300 |ddv_scf|^2 =  2.192E-09

      iter #   3 total cpu time : 12498.3 secs   av.it.:  16.7
      thresh= 4.682E-06 alpha_mix =  0.300 |ddv_scf|^2 =  1.312E-10

      iter #   4 total cpu time : 12533.3 secs   av.it.:  17.0
      thresh= 1.145E-06 alpha_mix =  0.300 |ddv_scf|^2 =  5.739E-12

      iter #   5 total cpu time : 12591.0 secs   av.it.:  16.7
      thresh= 2.396E-07 alpha_mix =  0.300 |ddv_scf|^2 =  5.826E-13

      iter #   6 total cpu time : 12627.4 secs   av.it.:  16.8
      thresh= 7.633E-08 alpha_mix =  0.300 |ddv_scf|^2 =  1.006E-13

      iter #   7 total cpu time : 12664.1 secs   av.it.:  16.9
      thresh= 3.172E-08 alpha_mix =  0.300 |ddv_scf|^2 =  3.223E-15

     End of self-consistent calculation

     Convergence has been achieved 


     Representation #  32 mode #  32

     Self-consistent Calculation

      iter #   1 total cpu time : 12720.1 secs   av.it.:  10.7
      thresh= 1.000E-02 alpha_mix =  0.300 |ddv_scf|^2 =  2.262E-06

      iter #   2 total cpu time : 12753.1 secs   av.it.:  15.5
      thresh= 1.504E-04 alpha_mix =  0.300 |ddv_scf|^2 =  3.024E-07

      iter #   3 total cpu time : 12788.7 secs   av.it.:  16.1
      thresh= 5.499E-05 alpha_mix =  0.300 |ddv_scf|^2 =  1.723E-09

      iter #   4 total cpu time : 12821.6 secs   av.it.:  16.7
      thresh= 4.151E-06 alpha_mix =  0.300 |ddv_scf|^2 =  1.317E-10

      iter #   5 total cpu time : 12858.2 secs   av.it.:  16.5
      thresh= 1.148E-06 alpha_mix =  0.300 |ddv_scf|^2 =  1.593E-11

      iter #   6 total cpu time : 12895.7 secs   av.it.:  16.8
      thresh= 3.992E-07 alpha_mix =  0.300 |ddv_scf|^2 =  6.628E-13

      iter #   7 total cpu time : 12932.1 secs   av.it.:  16.7
      thresh= 8.141E-08 alpha_mix =  0.300 |ddv_scf|^2 =  3.318E-14

      iter #   8 total cpu time : 12972.4 secs   av.it.:  15.9
      thresh= 1.822E-08 alpha_mix =  0.300 |ddv_scf|^2 =  1.148E-14

      iter #   9 total cpu time : 13015.0 secs   av.it.:  16.9
      thresh= 1.071E-08 alpha_mix =  0.300 |ddv_scf|^2 =  2.004E-16

     End of self-consistent calculation

     Convergence has been achieved 


     Representation #  33 mode #  33

     Self-consistent Calculation

      iter #   1 total cpu time : 13071.6 secs   av.it.:   7.1
      thresh= 1.000E-02 alpha_mix =  0.300 |ddv_scf|^2 =  1.625E-08

      iter #   2 total cpu time : 13112.2 secs   av.it.:  16.1
      thresh= 1.275E-05 alpha_mix =  0.300 |ddv_scf|^2 =  3.292E-09

      iter #   3 total cpu time : 13145.7 secs   av.it.:  16.6
      thresh= 5.738E-06 alpha_mix =  0.300 |ddv_scf|^2 =  1.833E-10

      iter #   4 total cpu time : 13182.3 secs   av.it.:  17.0
      thresh= 1.354E-06 alpha_mix =  0.300 |ddv_scf|^2 =  8.314E-12

      iter #   5 total cpu time : 13226.3 secs   av.it.:  16.9
      thresh= 2.883E-07 alpha_mix =  0.300 |ddv_scf|^2 =  5.323E-13

      iter #   6 total cpu time : 13268.4 secs   av.it.:  16.5
      thresh= 7.296E-08 alpha_mix =  0.300 |ddv_scf|^2 =  1.275E-13

      iter #   7 total cpu time : 13313.2 secs   av.it.:  16.9
      thresh= 3.571E-08 alpha_mix =  0.300 |ddv_scf|^2 =  3.274E-15

     End of self-consistent calculation

     Convergence has been achieved 
 
     Number of q in the star =   24
     List of q in the star:
          1  -0.117851130  -0.353553391   0.353553391
          2   0.117851130  -0.353553391  -0.353553391
          3  -0.117851130  -0.353553391  -0.353553391
          4  -0.117851130   0.353553391  -0.353553391
          5  -0.117851130   0.353553391   0.353553391
          6   0.117851130   0.353553391  -0.353553391
          7   0.117851130  -0.353553391   0.353553391
          8   0.117851130   0.353553391   0.353553391
          9  -0.353553391   0.353553391  -0.117851130
         10   0.353553391   0.353553391   0.117851130
         11   0.353553391   0.353553391  -0.117851130
         12   0.353553391  -0.353553391  -0.117851130
         13   0.353553391  -0.117851130  -0.353553391
         14   0.353553391   0.117851130   0.353553391
         15  -0.353553391   0.117851130  -0.353553391
         16   0.353553391   0.117851130  -0.353553391
         17  -0.353553391   0.117851130   0.353553391
         18  -0.353553391  -0.353553391   0.117851130
         19   0.353553391  -0.117851130   0.353553391
         20  -0.353553391  -0.117851130  -0.353553391
         21  -0.353553391   0.353553391   0.117851130
         22  -0.353553391  -0.117851130   0.353553391
         23   0.353553391  -0.353553391   0.117851130
         24  -0.353553391  -0.353553391  -0.117851130

     Diagonalizing the dynamical matrix

     q = (   -0.117851130  -0.353553391   0.353553391 ) 

 **************************************************************************
     freq (    1) =       6.696095 [THz] =     223.357679 [cm-1]
     freq (    2) =       6.918845 [THz] =     230.787826 [cm-1]
     freq (    3) =       8.995630 [THz] =     300.061922 [cm-1]
     freq (    4) =      23.556245 [THz] =     785.751760 [cm-1]
     freq (    5) =      25.923379 [THz] =     864.710854 [cm-1]
     freq (    6) =      25.953555 [THz] =     865.717421 [cm-1]
     freq (    7) =      27.171839 [THz] =     906.354983 [cm-1]
     freq (    8) =      28.282257 [THz] =     943.394544 [cm-1]
     freq (    9) =      32.804884 [THz] =    1094.253156 [cm-1]
     freq (   10) =      35.720984 [THz] =    1191.523757 [cm-1]
     freq (   11) =      35.763911 [THz] =    1192.955664 [cm-1]
     freq (   12) =      37.734639 [THz] =    1258.692085 [cm-1]
     freq (   13) =      38.802896 [THz] =    1294.325294 [cm-1]
     freq (   14) =      39.854831 [THz] =    1329.414067 [cm-1]
     freq (   15) =      42.184804 [THz] =    1407.133607 [cm-1]
     freq (   16) =      43.104932 [THz] =    1437.825779 [cm-1]
     freq (   17) =      43.399825 [THz] =    1447.662334 [cm-1]
     freq (   18) =      43.706037 [THz] =    1457.876484 [cm-1]
     freq (   19) =      44.550955 [THz] =    1486.059884 [cm-1]
     freq (   20) =      45.078557 [THz] =    1503.658797 [cm-1]
     freq (   21) =      46.595204 [THz] =    1554.248722 [cm-1]
     freq (   22) =      46.690932 [THz] =    1557.441847 [cm-1]
     freq (   23) =      47.715886 [THz] =    1591.630636 [cm-1]
     freq (   24) =      49.597029 [THz] =    1654.378814 [cm-1]
     freq (   25) =      50.848709 [THz] =    1696.130361 [cm-1]
     freq (   26) =      51.676706 [THz] =    1723.749354 [cm-1]
     freq (   27) =      53.425268 [THz] =    1782.075125 [cm-1]
     freq (   28) =      53.504256 [THz] =    1784.709883 [cm-1]
     freq (   29) =      55.267391 [THz] =    1843.521713 [cm-1]
     freq (   30) =      55.518482 [THz] =    1851.897213 [cm-1]
     freq (   31) =      56.181895 [THz] =    1874.026312 [cm-1]
     freq (   32) =      60.903146 [THz] =    2031.510294 [cm-1]
     freq (   33) =      66.102056 [THz] =    2204.927252 [cm-1]
 **************************************************************************

     Mode symmetry, C_s (m)     point group:

     freq (   1-   1) =        223.4  [cm-1]   --> A''                
     freq (   2-   2) =        230.8  [cm-1]   --> A'                 
     freq (   3-   3) =        300.1  [cm-1]   --> A'                 
     freq (   4-   4) =        785.8  [cm-1]   --> A'                 
     freq (   5-   5) =        864.7  [cm-1]   --> A''                
     freq (   6-   6) =        865.7  [cm-1]   --> A'                 
     freq (   7-   7) =        906.4  [cm-1]   --> A'                 
     freq (   8-   8) =        943.4  [cm-1]   --> A''                
     freq (   9-   9) =       1094.3  [cm-1]   --> A'                 
     freq (  10-  10) =       1191.5  [cm-1]   --> A''                
     freq (  11-  11) =       1193.0  [cm-1]   --> A'                 
     freq (  12-  12) =       1258.7  [cm-1]   --> A''                
     freq (  13-  13) =       1294.3  [cm-1]   --> A''                
     freq (  14-  14) =       1329.4  [cm-1]   --> A'                 
     freq (  15-  15) =       1407.1  [cm-1]   --> A'                 
     freq (  16-  16) =       1437.8  [cm-1]   --> A''                
     freq (  17-  17) =       1447.7  [cm-1]   --> A'                 
     freq (  18-  18) =       1457.9  [cm-1]   --> A''                
     freq (  19-  19) =       1486.1  [cm-1]   --> A''                
     freq (  20-  20) =       1503.7  [cm-1]   --> A'                 
     freq (  21-  21) =       1554.2  [cm-1]   --> A''                
     freq (  22-  22) =       1557.4  [cm-1]   --> A'                 
     freq (  23-  23) =       1591.6  [cm-1]   --> A'                 
     freq (  24-  24) =       1654.4  [cm-1]   --> A'                 
     freq (  25-  25) =       1696.1  [cm-1]   --> A'                 
     freq (  26-  26) =       1723.7  [cm-1]   --> A''                
     freq (  27-  27) =       1782.1  [cm-1]   --> A'                 
     freq (  28-  28) =       1784.7  [cm-1]   --> A''                
     freq (  29-  29) =       1843.5  [cm-1]   --> A''                
     freq (  30-  30) =       1851.9  [cm-1]   --> A'                 
     freq (  31-  31) =       1874.0  [cm-1]   --> A'                 
     freq (  32-  32) =       2031.5  [cm-1]   --> A'                 
     freq (  33-  33) =       2204.9  [cm-1]   --> A'                 
     Electron-phonon interaction  ...

     Gaussian Broadening:   0.005 Ry, ngauss=   0
     DOS =  4.794684 states/spin/Ry/Unit Cell at Ef= 22.110855 eV
     lambda(    1)=  0.0083   gamma=    1.70 GHz
     lambda(    2)=  0.0072   gamma=    1.57 GHz
     lambda(    3)=  0.0090   gamma=    3.34 GHz
     lambda(    4)=  0.0380   gamma=   96.60 GHz
     lambda(    5)=  0.0140   gamma=   43.23 GHz
     lambda(    6)=  0.0188   gamma=   58.10 GHz
     lambda(    7)=  0.0124   gamma=   41.85 GHz
     lambda(    8)=  0.0123   gamma=   44.94 GHz
     lambda(    9)=  0.0218   gamma=  107.53 GHz
     lambda(   10)=  0.0070   gamma=   41.10 GHz
     lambda(   11)=  0.0300   gamma=  175.67 GHz
     lambda(   12)=  0.0046   gamma=   30.18 GHz
     lambda(   13)=  0.0052   gamma=   36.06 GHz
     lambda(   14)=  0.0058   gamma=   42.12 GHz
     lambda(   15)=  0.0208   gamma=  169.28 GHz
     lambda(   16)=  0.0083   gamma=   70.98 GHz
     lambda(   17)=  0.0086   gamma=   74.15 GHz
     lambda(   18)=  0.0176   gamma=  154.13 GHz
     lambda(   19)=  0.0076   gamma=   69.38 GHz
     lambda(   20)=  0.0173   gamma=  160.64 GHz
     lambda(   21)=  0.0223   gamma=  221.93 GHz
     lambda(   22)=  0.0181   gamma=  180.68 GHz
     lambda(   23)=  0.0051   gamma=   53.36 GHz
     lambda(   24)=  0.0095   gamma=  107.53 GHz
     lambda(   25)=  0.0047   gamma=   55.49 GHz
     lambda(   26)=  0.0076   gamma=   93.39 GHz
     lambda(   27)=  0.0120   gamma=  156.96 GHz
     lambda(   28)=  0.0079   gamma=  103.60 GHz
     lambda(   29)=  0.0106   gamma=  148.12 GHz
     lambda(   30)=  0.0226   gamma=  319.58 GHz
     lambda(   31)=  0.0035   gamma=   50.35 GHz
     lambda(   32)=  0.0022   gamma=   38.12 GHz
     lambda(   33)=  0.0016   gamma=   32.79 GHz
     Gaussian Broadening:   0.010 Ry, ngauss=   0
     DOS =  4.491154 states/spin/Ry/Unit Cell at Ef= 22.118081 eV
     lambda(    1)=  0.0060   gamma=    1.15 GHz
     lambda(    2)=  0.0052   gamma=    1.07 GHz
     lambda(    3)=  0.0072   gamma=    2.49 GHz
     lambda(    4)=  0.0557   gamma=  132.47 GHz
     lambda(    5)=  0.0149   gamma=   43.06 GHz
     lambda(    6)=  0.0143   gamma=   41.45 GHz
     lambda(    7)=  0.0108   gamma=   34.06 GHz
     lambda(    8)=  0.0092   gamma=   31.46 GHz
     lambda(    9)=  0.0322   gamma=  148.67 GHz
     lambda(   10)=  0.0062   gamma=   34.08 GHz
     lambda(   11)=  0.0187   gamma=  102.61 GHz
     lambda(   12)=  0.0042   gamma=   25.82 GHz
     lambda(   13)=  0.0068   gamma=   43.87 GHz
     lambda(   14)=  0.0043   gamma=   28.97 GHz
     lambda(   15)=  0.0119   gamma=   90.72 GHz
     lambda(   16)=  0.0060   gamma=   47.57 GHz
     lambda(   17)=  0.0104   gamma=   84.04 GHz
     lambda(   18)=  0.0127   gamma=  103.99 GHz
     lambda(   19)=  0.0059   gamma=   50.10 GHz
     lambda(   20)=  0.0127   gamma=  111.01 GHz
     lambda(   21)=  0.0146   gamma=  135.49 GHz
     lambda(   22)=  0.0124   gamma=  116.00 GHz
     lambda(   23)=  0.0046   gamma=   45.01 GHz
     lambda(   24)=  0.0076   gamma=   79.97 GHz
     lambda(   25)=  0.0050   gamma=   55.77 GHz
     lambda(   26)=  0.0052   gamma=   59.05 GHz
     lambda(   27)=  0.0170   gamma=  207.56 GHz
     lambda(   28)=  0.0072   gamma=   88.57 GHz
     lambda(   29)=  0.0081   gamma=  105.82 GHz
     lambda(   30)=  0.0140   gamma=  184.91 GHz
     lambda(   31)=  0.0031   gamma=   41.73 GHz
     lambda(   32)=  0.0032   gamma=   51.28 GHz
     lambda(   33)=  0.0017   gamma=   32.53 GHz
     Gaussian Broadening:   0.015 Ry, ngauss=   0
     DOS =  4.448291 states/spin/Ry/Unit Cell at Ef= 22.124358 eV
     lambda(    1)=  0.0055   gamma=    1.04 GHz
     lambda(    2)=  0.0046   gamma=    0.93 GHz
     lambda(    3)=  0.0079   gamma=    2.72 GHz
     lambda(    4)=  0.0597   gamma=  140.74 GHz
     lambda(    5)=  0.0156   gamma=   44.54 GHz
     lambda(    6)=  0.0149   gamma=   42.67 GHz
     lambda(    7)=  0.0102   gamma=   31.87 GHz
     lambda(    8)=  0.0087   gamma=   29.64 GHz
     lambda(    9)=  0.0385   gamma=  175.77 GHz
     lambda(   10)=  0.0075   gamma=   40.43 GHz
     lambda(   11)=  0.0186   gamma=  100.83 GHz
     lambda(   12)=  0.0046   gamma=   28.00 GHz
     lambda(   13)=  0.0082   gamma=   52.71 GHz
     lambda(   14)=  0.0043   gamma=   29.16 GHz
     lambda(   15)=  0.0096   gamma=   72.63 GHz
     lambda(   16)=  0.0068   gamma=   53.72 GHz
     lambda(   17)=  0.0119   gamma=   95.47 GHz
     lambda(   18)=  0.0119   gamma=   96.88 GHz
     lambda(   19)=  0.0063   gamma=   53.37 GHz
     lambda(   20)=  0.0112   gamma=   96.75 GHz
     lambda(   21)=  0.0125   gamma=  115.09 GHz
     lambda(   22)=  0.0117   gamma=  107.95 GHz
     lambda(   23)=  0.0049   gamma=   47.33 GHz
     lambda(   24)=  0.0075   gamma=   78.41 GHz
     lambda(   25)=  0.0052   gamma=   56.82 GHz
     lambda(   26)=  0.0047   gamma=   52.96 GHz
     lambda(   27)=  0.0183   gamma=  221.43 GHz
     lambda(   28)=  0.0083   gamma=  101.50 GHz
     lambda(   29)=  0.0099   gamma=  128.62 GHz
     lambda(   30)=  0.0116   gamma=  152.44 GHz
     lambda(   31)=  0.0035   gamma=   47.06 GHz
     lambda(   32)=  0.0038   gamma=   59.95 GHz
     lambda(   33)=  0.0024   gamma=   45.07 GHz
     Gaussian Broadening:   0.020 Ry, ngauss=   0
     DOS =  4.528357 states/spin/Ry/Unit Cell at Ef= 22.128042 eV
     lambda(    1)=  0.0060   gamma=    1.15 GHz
     lambda(    2)=  0.0046   gamma=    0.95 GHz
     lambda(    3)=  0.0092   gamma=    3.23 GHz
     lambda(    4)=  0.0608   gamma=  146.00 GHz
     lambda(    5)=  0.0162   gamma=   46.97 GHz
     lambda(    6)=  0.0174   gamma=   50.57 GHz
     lambda(    7)=  0.0101   gamma=   32.11 GHz
     lambda(    8)=  0.0091   gamma=   31.60 GHz
     lambda(    9)=  0.0431   gamma=  200.73 GHz
     lambda(   10)=  0.0089   gamma=   49.24 GHz
     lambda(   11)=  0.0197   gamma=  109.08 GHz
     lambda(   12)=  0.0053   gamma=   32.42 GHz
     lambda(   13)=  0.0092   gamma=   60.16 GHz
     lambda(   14)=  0.0049   gamma=   33.75 GHz
     lambda(   15)=  0.0095   gamma=   72.75 GHz
     lambda(   16)=  0.0077   gamma=   61.77 GHz
     lambda(   17)=  0.0135   gamma=  110.29 GHz
     lambda(   18)=  0.0121   gamma=   99.77 GHz
     lambda(   19)=  0.0073   gamma=   62.95 GHz
     lambda(   20)=  0.0112   gamma=   98.67 GHz
     lambda(   21)=  0.0122   gamma=  114.30 GHz
     lambda(   22)=  0.0123   gamma=  116.03 GHz
     lambda(   23)=  0.0056   gamma=   54.99 GHz
     lambda(   24)=  0.0078   gamma=   82.91 GHz
     lambda(   25)=  0.0056   gamma=   62.37 GHz
     lambda(   26)=  0.0049   gamma=   56.29 GHz
     lambda(   27)=  0.0186   gamma=  229.88 GHz
     lambda(   28)=  0.0097   gamma=  119.89 GHz
     lambda(   29)=  0.0132   gamma=  174.81 GHz
     lambda(   30)=  0.0116   gamma=  153.98 GHz
     lambda(   31)=  0.0042   gamma=   56.84 GHz
     lambda(   32)=  0.0043   gamma=   68.24 GHz
     lambda(   33)=  0.0030   gamma=   57.16 GHz
     Gaussian Broadening:   0.025 Ry, ngauss=   0
     DOS =  4.634996 states/spin/Ry/Unit Cell at Ef= 22.128678 eV
     lambda(    1)=  0.0064   gamma=    1.27 GHz
     lambda(    2)=  0.0048   gamma=    1.02 GHz
     lambda(    3)=  0.0104   gamma=    3.73 GHz
     lambda(    4)=  0.0607   gamma=  149.02 GHz
     lambda(    5)=  0.0167   gamma=   49.58 GHz
     lambda(    6)=  0.0194   gamma=   57.69 GHz
     lambda(    7)=  0.0101   gamma=   32.89 GHz
     lambda(    8)=  0.0096   gamma=   33.93 GHz
     lambda(    9)=  0.0449   gamma=  213.86 GHz
     lambda(   10)=  0.0101   gamma=   56.92 GHz
     lambda(   11)=  0.0213   gamma=  120.38 GHz
     lambda(   12)=  0.0058   gamma=   36.86 GHz
     lambda(   13)=  0.0101   gamma=   67.35 GHz
     lambda(   14)=  0.0056   gamma=   39.19 GHz
     lambda(   15)=  0.0098   gamma=   76.93 GHz
     lambda(   16)=  0.0085   gamma=   69.78 GHz
     lambda(   17)=  0.0147   gamma=  122.56 GHz
     lambda(   18)=  0.0128   gamma=  107.87 GHz
     lambda(   19)=  0.0082   gamma=   72.23 GHz
     lambda(   20)=  0.0117   gamma=  105.43 GHz
     lambda(   21)=  0.0125   gamma=  120.17 GHz
     lambda(   22)=  0.0131   gamma=  126.63 GHz
     lambda(   23)=  0.0063   gamma=   63.01 GHz
     lambda(   24)=  0.0082   gamma=   89.56 GHz
     lambda(   25)=  0.0059   gamma=   68.02 GHz
     lambda(   26)=  0.0051   gamma=   60.83 GHz
     lambda(   27)=  0.0185   gamma=  234.22 GHz
     lambda(   28)=  0.0107   gamma=  135.88 GHz
     lambda(   29)=  0.0155   gamma=  209.09 GHz
     lambda(   30)=  0.0117   gamma=  158.96 GHz
     lambda(   31)=  0.0046   gamma=   64.78 GHz
     lambda(   32)=  0.0046   gamma=   75.55 GHz
     lambda(   33)=  0.0034   gamma=   65.59 GHz
     Gaussian Broadening:   0.030 Ry, ngauss=   0
     DOS =  4.755068 states/spin/Ry/Unit Cell at Ef= 22.126761 eV
     lambda(    1)=  0.0067   gamma=    1.36 GHz
     lambda(    2)=  0.0052   gamma=    1.12 GHz
     lambda(    3)=  0.0114   gamma=    4.19 GHz
     lambda(    4)=  0.0597   gamma=  150.50 GHz
     lambda(    5)=  0.0171   gamma=   52.20 GHz
     lambda(    6)=  0.0207   gamma=   63.41 GHz
     lambda(    7)=  0.0101   gamma=   33.91 GHz
     lambda(    8)=  0.0100   gamma=   36.39 GHz
     lambda(    9)=  0.0450   gamma=  219.82 GHz
     lambda(   10)=  0.0111   gamma=   64.45 GHz
     lambda(   11)=  0.0230   gamma=  133.77 GHz
     lambda(   12)=  0.0065   gamma=   41.90 GHz
     lambda(   13)=  0.0109   gamma=   74.73 GHz
     lambda(   14)=  0.0063   gamma=   45.31 GHz
     lambda(   15)=  0.0102   gamma=   82.77 GHz
     lambda(   16)=  0.0093   gamma=   78.20 GHz
     lambda(   17)=  0.0156   gamma=  133.62 GHz
     lambda(   18)=  0.0137   gamma=  119.02 GHz
     lambda(   19)=  0.0090   gamma=   81.30 GHz
     lambda(   20)=  0.0123   gamma=  113.68 GHz
     lambda(   21)=  0.0131   gamma=  129.46 GHz
     lambda(   22)=  0.0139   gamma=  137.44 GHz
     lambda(   23)=  0.0069   gamma=   71.79 GHz
     lambda(   24)=  0.0087   gamma=   97.32 GHz
     lambda(   25)=  0.0063   gamma=   74.00 GHz
     lambda(   26)=  0.0054   gamma=   65.88 GHz
     lambda(   27)=  0.0183   gamma=  237.11 GHz
     lambda(   28)=  0.0116   gamma=  150.27 GHz
     lambda(   29)=  0.0167   gamma=  231.65 GHz
     lambda(   30)=  0.0117   gamma=  163.66 GHz
     lambda(   31)=  0.0050   gamma=   71.39 GHz
     lambda(   32)=  0.0048   gamma=   81.40 GHz
     lambda(   33)=  0.0036   gamma=   72.20 GHz
     Gaussian Broadening:   0.035 Ry, ngauss=   0
     DOS =  4.903732 states/spin/Ry/Unit Cell at Ef= 22.122264 eV
     lambda(    1)=  0.0070   gamma=    1.46 GHz
     lambda(    2)=  0.0058   gamma=    1.29 GHz
     lambda(    3)=  0.0122   gamma=    4.62 GHz
     lambda(    4)=  0.0582   gamma=  151.29 GHz
     lambda(    5)=  0.0175   gamma=   54.96 GHz
     lambda(    6)=  0.0217   gamma=   68.56 GHz
     lambda(    7)=  0.0102   gamma=   35.21 GHz
     lambda(    8)=  0.0105   gamma=   39.25 GHz
     lambda(    9)=  0.0444   gamma=  223.59 GHz
     lambda(   10)=  0.0122   gamma=   72.78 GHz
     lambda(   11)=  0.0247   gamma=  148.05 GHz
     lambda(   12)=  0.0072   gamma=   47.79 GHz
     lambda(   13)=  0.0117   gamma=   82.40 GHz
     lambda(   14)=  0.0070   gamma=   52.29 GHz
     lambda(   15)=  0.0108   gamma=   90.28 GHz
     lambda(   16)=  0.0100   gamma=   87.30 GHz
     lambda(   17)=  0.0164   gamma=  145.06 GHz
     lambda(   18)=  0.0147   gamma=  131.56 GHz
     lambda(   19)=  0.0098   gamma=   91.25 GHz
     lambda(   20)=  0.0129   gamma=  122.56 GHz
     lambda(   21)=  0.0139   gamma=  140.87 GHz
     lambda(   22)=  0.0145   gamma=  148.28 GHz
     lambda(   23)=  0.0077   gamma=   82.10 GHz
     lambda(   24)=  0.0092   gamma=  105.86 GHz
     lambda(   25)=  0.0067   gamma=   81.04 GHz
     lambda(   26)=  0.0058   gamma=   71.92 GHz
     lambda(   27)=  0.0180   gamma=  240.04 GHz
     lambda(   28)=  0.0122   gamma=  164.02 GHz
     lambda(   29)=  0.0174   gamma=  248.31 GHz
     lambda(   30)=  0.0117   gamma=  169.11 GHz
     lambda(   31)=  0.0053   gamma=   78.04 GHz
     lambda(   32)=  0.0050   gamma=   86.44 GHz
     lambda(   33)=  0.0039   gamma=   78.93 GHz
     Gaussian Broadening:   0.040 Ry, ngauss=   0
     DOS =  5.088867 states/spin/Ry/Unit Cell at Ef= 22.114955 eV
     lambda(    1)=  0.0073   gamma=    1.58 GHz
     lambda(    2)=  0.0065   gamma=    1.52 GHz
     lambda(    3)=  0.0129   gamma=    5.06 GHz
     lambda(    4)=  0.0564   gamma=  151.96 GHz
     lambda(    5)=  0.0177   gamma=   57.94 GHz
     lambda(    6)=  0.0225   gamma=   73.60 GHz
     lambda(    7)=  0.0103   gamma=   36.83 GHz
     lambda(    8)=  0.0110   gamma=   42.77 GHz
     lambda(    9)=  0.0435   gamma=  227.32 GHz
     lambda(   10)=  0.0133   gamma=   82.25 GHz
     lambda(   11)=  0.0261   gamma=  162.25 GHz
     lambda(   12)=  0.0079   gamma=   54.34 GHz
     lambda(   13)=  0.0124   gamma=   90.40 GHz
     lambda(   14)=  0.0078   gamma=   60.09 GHz
     lambda(   15)=  0.0115   gamma=   99.55 GHz
     lambda(   16)=  0.0108   gamma=   97.42 GHz
     lambda(   17)=  0.0172   gamma=  157.14 GHz
     lambda(   18)=  0.0156   gamma=  144.63 GHz
     lambda(   19)=  0.0106   gamma=  102.47 GHz
     lambda(   20)=  0.0134   gamma=  132.05 GHz
     lambda(   21)=  0.0146   gamma=  153.70 GHz
     lambda(   22)=  0.0150   gamma=  159.21 GHz
     lambda(   23)=  0.0085   gamma=   94.29 GHz
     lambda(   24)=  0.0096   gamma=  115.09 GHz
     lambda(   25)=  0.0071   gamma=   89.39 GHz
     lambda(   26)=  0.0061   gamma=   79.17 GHz
     lambda(   27)=  0.0176   gamma=  243.67 GHz
     lambda(   28)=  0.0128   gamma=  177.40 GHz
     lambda(   29)=  0.0177   gamma=  263.18 GHz
     lambda(   30)=  0.0117   gamma=  175.97 GHz
     lambda(   31)=  0.0056   gamma=   85.58 GHz
     lambda(   32)=  0.0051   gamma=   91.16 GHz
     lambda(   33)=  0.0041   gamma=   86.51 GHz
     Gaussian Broadening:   0.045 Ry, ngauss=   0
     DOS =  5.309480 states/spin/Ry/Unit Cell at Ef= 22.104685 eV
     lambda(    1)=  0.0077   gamma=    1.74 GHz
     lambda(    2)=  0.0075   gamma=    1.81 GHz
     lambda(    3)=  0.0135   gamma=    5.52 GHz
     lambda(    4)=  0.0543   gamma=  152.76 GHz
     lambda(    5)=  0.0180   gamma=   61.20 GHz
     lambda(    6)=  0.0230   gamma=   78.71 GHz
     lambda(    7)=  0.0104   gamma=   38.77 GHz
     lambda(    8)=  0.0116   gamma=   47.01 GHz
     lambda(    9)=  0.0424   gamma=  231.57 GHz
     lambda(   10)=  0.0144   gamma=   93.07 GHz
     lambda(   11)=  0.0271   gamma=  175.90 GHz
     lambda(   12)=  0.0085   gamma=   61.33 GHz
     lambda(   13)=  0.0130   gamma=   98.88 GHz
     lambda(   14)=  0.0085   gamma=   68.58 GHz
     lambda(   15)=  0.0122   gamma=  110.52 GHz
     lambda(   16)=  0.0116   gamma=  108.87 GHz
     lambda(   17)=  0.0178   gamma=  169.61 GHz
     lambda(   18)=  0.0163   gamma=  157.92 GHz
     lambda(   19)=  0.0114   gamma=  114.97 GHz
     lambda(   20)=  0.0138   gamma=  142.30 GHz
     lambda(   21)=  0.0152   gamma=  167.64 GHz
     lambda(   22)=  0.0154   gamma=  170.44 GHz
     lambda(   23)=  0.0094   gamma=  108.47 GHz
     lambda(   24)=  0.0100   gamma=  125.04 GHz
     lambda(   25)=  0.0076   gamma=   99.01 GHz
     lambda(   26)=  0.0065   gamma=   87.58 GHz
     lambda(   27)=  0.0172   gamma=  248.26 GHz
     lambda(   28)=  0.0131   gamma=  190.54 GHz
     lambda(   29)=  0.0180   gamma=  278.36 GHz
     lambda(   30)=  0.0118   gamma=  184.35 GHz
     lambda(   31)=  0.0059   gamma=   94.49 GHz
     lambda(   32)=  0.0051   gamma=   95.83 GHz
     lambda(   33)=  0.0043   gamma=   95.03 GHz
     Gaussian Broadening:   0.050 Ry, ngauss=   0
     DOS =  5.560451 states/spin/Ry/Unit Cell at Ef= 22.091444 eV
     lambda(    1)=  0.0082   gamma=    1.95 GHz
     lambda(    2)=  0.0085   gamma=    2.15 GHz
     lambda(    3)=  0.0140   gamma=    6.02 GHz
     lambda(    4)=  0.0522   gamma=  153.78 GHz
     lambda(    5)=  0.0181   gamma=   64.75 GHz
     lambda(    6)=  0.0235   gamma=   83.91 GHz
     lambda(    7)=  0.0105   gamma=   41.03 GHz
     lambda(    8)=  0.0122   gamma=   51.91 GHz
     lambda(    9)=  0.0414   gamma=  236.34 GHz
     lambda(   10)=  0.0156   gamma=  105.45 GHz
     lambda(   11)=  0.0278   gamma=  188.93 GHz
     lambda(   12)=  0.0091   gamma=   68.66 GHz
     lambda(   13)=  0.0135   gamma=  107.94 GHz
     lambda(   14)=  0.0092   gamma=   77.58 GHz
     lambda(   15)=  0.0130   gamma=  123.04 GHz
     lambda(   16)=  0.0123   gamma=  121.83 GHz
     lambda(   17)=  0.0182   gamma=  182.18 GHz
     lambda(   18)=  0.0169   gamma=  171.35 GHz
     lambda(   19)=  0.0122   gamma=  128.58 GHz
     lambda(   20)=  0.0142   gamma=  153.42 GHz
     lambda(   21)=  0.0158   gamma=  182.55 GHz
     lambda(   22)=  0.0157   gamma=  182.24 GHz
     lambda(   23)=  0.0103   gamma=  124.62 GHz
     lambda(   24)=  0.0104   gamma=  135.78 GHz
     lambda(   25)=  0.0080   gamma=  109.85 GHz
     lambda(   26)=  0.0068   gamma=   96.97 GHz
     lambda(   27)=  0.0167   gamma=  253.77 GHz
     lambda(   28)=  0.0134   gamma=  203.57 GHz
     lambda(   29)=  0.0182   gamma=  294.70 GHz
     lambda(   30)=  0.0119   gamma=  194.09 GHz
     lambda(   31)=  0.0063   gamma=  105.06 GHz
     lambda(   32)=  0.0051   gamma=  100.58 GHz
     lambda(   33)=  0.0045   gamma=  104.41 GHz
 
 
     Number of q in the star =   24
     List of q in the star:
          1  -0.117851130  -0.353553391   0.353553391
          2   0.117851130  -0.353553391  -0.353553391
          3  -0.117851130  -0.353553391  -0.353553391
          4  -0.117851130   0.353553391  -0.353553391
          5  -0.117851130   0.353553391   0.353553391
          6   0.117851130   0.353553391  -0.353553391
          7   0.117851130  -0.353553391   0.353553391
          8   0.117851130   0.353553391   0.353553391
          9  -0.353553391   0.353553391  -0.117851130
         10   0.353553391   0.353553391   0.117851130
         11   0.353553391   0.353553391  -0.117851130
         12   0.353553391  -0.353553391  -0.117851130
         13   0.353553391  -0.117851130  -0.353553391
         14   0.353553391   0.117851130   0.353553391
         15  -0.353553391   0.117851130  -0.353553391
         16   0.353553391   0.117851130  -0.353553391
         17  -0.353553391   0.117851130   0.353553391
         18  -0.353553391  -0.353553391   0.117851130
         19   0.353553391  -0.117851130   0.353553391
         20  -0.353553391  -0.117851130  -0.353553391
         21  -0.353553391   0.353553391   0.117851130
         22  -0.353553391  -0.117851130   0.353553391
         23   0.353553391  -0.353553391   0.117851130
         24  -0.353553391  -0.353553391  -0.117851130
 
     init_run     :      0.44s CPU      0.62s WALL (       1 calls)
     electrons    :     32.60s CPU     40.28s WALL (       1 calls)

     Called by init_run:
     wfcinit      :      0.00s CPU      0.05s WALL (       1 calls)
     potinit      :      0.21s CPU      0.33s WALL (       1 calls)
     hinit0       :      0.10s CPU      0.11s WALL (       1 calls)

     Called by electrons:
     c_bands      :     32.57s CPU     40.25s WALL (       1 calls)
     v_of_rho     :      0.02s CPU      0.03s WALL (       2 calls)
     newd         :      0.05s CPU      0.06s WALL (       2 calls)
     PAW_pot      :      0.37s CPU      0.40s WALL (       2 calls)

     Called by c_bands:
     init_us_2    :      9.37s CPU     10.73s WALL (  104130 calls)
     cegterg      :     18.14s CPU     19.06s WALL (     590 calls)

     Called by *egterg:
     cdiaghg      :      5.62s CPU      5.85s WALL (    9788 calls)
     h_psi        :   3169.32s CPU   4203.22s WALL ( 1702295 calls)
     s_psi        :     74.80s CPU     81.33s WALL ( 3473772 calls)
     g_psi        :      0.06s CPU      0.06s WALL (    9320 calls)

     Called by h_psi:
     h_psi:calbec :     53.37s CPU     57.90s WALL ( 1702295 calls)
     vloc_psi     :   3063.34s CPU   4088.24s WALL ( 1702295 calls)
     add_vuspsi   :     38.81s CPU     42.25s WALL ( 1702295 calls)

     General routines
     calbec       :    226.74s CPU    237.38s WALL ( 3595218 calls)
     fft          :      2.44s CPU      3.15s WALL (    6931 calls)
     ffts         :    193.61s CPU    300.37s WALL (    9559 calls)
     fftw         :   4391.93s CPU   6262.39s WALL (33181815 calls)
     interpolate  :      0.75s CPU      1.02s WALL (     715 calls)
     davcio       :     33.78s CPU   1779.81s WALL (  442786 calls)
 
     Parallel routines
 
     PHONON       :      2h32m CPU      3h43m WALL

     INITIALIZATION: 
     phq_setup    :      0.03s CPU      0.06s WALL (       1 calls)
     phq_init     :     35.61s CPU     42.12s WALL (       1 calls)
 
     phq_init     :     35.61s CPU     42.12s WALL (       1 calls)
     set_drhoc    :      0.00s CPU      0.00s WALL (       3 calls)
     init_vloc    :      0.01s CPU      0.02s WALL (       2 calls)
     init_us_1    :      0.16s CPU      0.22s WALL (       2 calls)
     init_us_2    :      9.37s CPU     10.73s WALL (  104130 calls)
     newd         :      0.05s CPU      0.06s WALL (       2 calls)
     dvanqq       :      1.67s CPU      1.69s WALL (       1 calls)
     drho         :     23.71s CPU     28.16s WALL (       1 calls)
     drhous       :     13.10s CPU     15.89s WALL (       1 calls)
     nldyntot     :      0.88s CPU      0.88s WALL (       1 calls)
 
     DYNAMICAL MATRIX:
     dynmat0      :      4.20s CPU      5.25s WALL (       1 calls)
     dynmat_us    :      4.15s CPU      5.18s WALL (       1 calls)
     addusdynmat  :      0.00s CPU      0.00s WALL (       1 calls)
     d2ionq       :      0.04s CPU      0.04s WALL (       1 calls)
     dynmatcc     :      0.01s CPU      0.01s WALL (       1 calls)
     phqscf       :   9035.62s CPU  13253.60s WALL (       1 calls)
     dynmatrix    :      0.02s CPU      0.05s WALL (       1 calls)
 
     phqscf       :   9035.62s CPU  13253.60s WALL (       1 calls)
     solve_linter :   8912.31s CPU  13094.95s WALL (      33 calls)
     sth_kernel   :   7970.29s CPU  11324.36s WALL (     340 calls)
     h_prec       :   2342.30s CPU   2378.27s WALL (   79560 calls)
     apply_dpot_b :   1010.90s CPU   1564.10s WALL (   79560 calls)
     ortho        :    132.46s CPU    135.40s WALL (   79560 calls)
     cgsolve      :   3396.21s CPU   4450.33s WALL (   79560 calls)
     incdrhoscf   :    649.61s CPU    971.76s WALL (   79560 calls)
                                        0.00s GPU  (   79560 calls)
     addusddens   :     35.39s CPU     45.08s WALL (     373 calls)
     vpsifft      :    193.01s CPU    302.22s WALL (    7722 calls)
     dv_of_drho   :      3.12s CPU      3.53s WALL (     340 calls)
     mix_pot      :     65.34s CPU    228.86s WALL (     340 calls)
     drhodv       :    123.25s CPU    139.05s WALL (      33 calls)
     psymdvscf    :     45.12s CPU     45.68s WALL (     340 calls)
     newdq        :     29.41s CPU     29.64s WALL (     340 calls)
     adddvscf     :      9.41s CPU     10.39s WALL (   79560 calls)
     com_dvloc    :    193.36s CPU    299.95s WALL (    8844 calls)
                                        0.00s GPU  (    8844 calls)
     addcore      :      0.48s CPU      0.58s WALL (    1462 calls)
                                        0.00s GPU  (    1462 calls)
     drhodvus     :     39.07s CPU     85.85s WALL (      33 calls)
 
     dvqpsi_us    :    227.84s CPU    336.17s WALL (    7722 calls)
                                        0.00s GPU  (    7722 calls)
     dvqpsi_us_on :     23.20s CPU     23.53s WALL (    7722 calls)
 
     add_vuspsi   :     38.81s CPU     42.25s WALL ( 1702295 calls)
     addusdbec    :      4.95s CPU      5.31s WALL (   87282 calls)
 
     drhodvus     :     39.07s CPU     85.85s WALL (      33 calls)
 
      Electron-phonon coupling
     elphel       :    219.42s CPU    396.21s WALL (      33 calls)
     elphsum      :     27.68s CPU     28.73s WALL (       1 calls)
 
      General routines
     calbec       :    226.74s CPU    237.38s WALL ( 3595218 calls)
     fft          :      2.44s CPU      3.15s WALL (    6931 calls)
     ffts         :    193.61s CPU    300.37s WALL (    9559 calls)
     fftw         :   4391.93s CPU   6262.39s WALL (33181815 calls)
     davcio       :     33.78s CPU   1779.81s WALL (  442786 calls)
     write_rec    :      0.57s CPU    237.87s WALL (     373 calls)
 
      Additional routines
     ch_psi       :   3359.80s CPU   4410.35s WALL ( 1691917 calls)
     last         :    144.73s CPU    157.21s WALL ( 1691917 calls)
     Hesh         :      4.87s CPU      5.43s WALL ( 1691917 calls)
     ch_psi_all_k :    131.86s CPU    143.24s WALL ( 1691917 calls)
                                        0.00s GPU  ( 1691917 calls)
     ch_psi_calbe :     43.44s CPU     46.97s WALL ( 1691917 calls)
                                        0.00s GPU  ( 1691917 calls)
     h_psi_bgrp   :   3172.83s CPU   4206.97s WALL ( 1702295 calls)
     h_psi        :   3169.32s CPU   4203.22s WALL ( 1702295 calls)
     h_psi:pot    :   3163.08s CPU   4196.32s WALL ( 1702295 calls)
     h_psi:calbec :     53.37s CPU     57.90s WALL ( 1702295 calls)
     s_psi_bgrp   :     86.34s CPU     93.74s WALL ( 3473772 calls)
     s_psi        :     74.80s CPU     81.33s WALL ( 3473772 calls)
 
 
     PHONON       :      2h32m CPU      3h43m WALL

 
   This run was terminated on:  20:40:29  22Oct2025            

=------------------------------------------------------------------------------=
   JOB DONE.
=------------------------------------------------------------------------------=
