
     Program PWSCF v.7.4.1 starts on 22Oct2025 at 10:25:54 

     This program is part of the open-source Quantum ESPRESSO suite
     for quantum simulation of materials; please cite
         "P. Giannozzi et al., J. Phys.:Condens. Matter 21 395502 (2009);
         "P. Giannozzi et al., J. Phys.:Condens. Matter 29 465901 (2017);
         "P. Giannozzi et al., J. Chem. Phys. 152 154105 (2020);
          URL http://www.quantum-espresso.org", 
     in publications or presentations arising from this work. More details at
     http://www.quantum-espresso.org/quote

     Parallel version (MPI), running on    48 processors

     MPI processes distributed on     1 nodes
     180822 MiB available memory on the printing compute node when the environment starts
 
     Waiting for input...
     Reading input from standard input

     Current dimensions of program PWSCF are:
     Max number of different atomic species (ntypx) = 10
     Max number of k-points (npk) =  40000
     Max angular momentum in pseudopotentials (lmaxx) =  4
     file Ce.paw.z_12.atompaw.wentzcovitch.v1.2.upf: wavefunction(s)  6S 0P 5D 0D 4F 0F renormalized
     file H.pbe-kjpaw_psl.1.0.0.UPF: wavefunction(s)  1S renormalized
     Message from routine setup:
     using ibrav=0 with symmetry is DISCOURAGED, use correct ibrav instead
 
     K-points division:     npool     =       4
     R & G space division:  proc/nbgrp/npool/nimage =      12
     Subspace diagonalization in iterative solution of the eigenvalue problem:
     a serial algorithm will be used

 
     Parallelization info
     --------------------
     sticks:   dense  smooth     PW     G-vecs:    dense   smooth      PW
     Min         226      76     22                 7730     1493     247
     Max         227      77     23                 7733     1495     249
     Sum        2713     913    271                92769    17933    2975
 
     Using Slab Decomposition
 


     bravais-lattice index     =            0
     lattice parameter (alat)  =       6.3832  a.u.
     unit-cell volume          =     183.9115 (a.u.)^3
     number of atoms/cell      =           11
     number of atomic types    =            2
     number of electrons       =        22.00
     number of Kohn-Sham states=           15
     kinetic-energy cutoff     =      80.0000  Ry
     charge density cutoff     =     960.0000  Ry
     scf convergence threshold =      1.0E-09
     mixing beta               =       0.7000
     number of iterations used =            8  plain     mixing
     energy convergence thresh.=      1.0E-07
     force convergence thresh. =      1.0E-06
     press convergence thresh. =      1.0E-02
     Exchange-correlation= SLA  PW   PBX  PBC
                           (   1   4   3   4   0   0   0)
     nstep                     =         2000


     celldm(1)=   6.383242  celldm(2)=   0.000000  celldm(3)=   0.000000
     celldm(4)=   0.000000  celldm(5)=   0.000000  celldm(6)=   0.000000

     crystal axes: (cart. coord. in units of alat)
               a(1) = (   0.000000   0.707107   0.707107 )  
               a(2) = (   0.707107   0.000000   0.707107 )  
               a(3) = (   0.707107   0.707107   0.000000 )  

     reciprocal axes: (cart. coord. in units 2 pi/alat)
               b(1) = ( -0.707107  0.707107  0.707107 )  
               b(2) = (  0.707107 -0.707107  0.707107 )  
               b(3) = (  0.707107  0.707107 -0.707107 )  


     PseudoPot. # 1 for Ce read from file:
     /work/home/mayuan/workplace/1.typical_hydride/003.MH10/2.CeH10/250/Tc-666-paw/pp/Ce.paw.z_12.atompaw.wentzcovitch.v1.2.upf
     MD5 check sum: 2241420ff980c77e0c917a2dc8a7e08e
     Pseudo is Projector augmented-wave + core cor, Zval = 12.0
     Generated using ATOMPAW code
     Shape of augmentation charge: BESSEL
     Using radial grid of 1102 points,  8 beta functions with: 
                l(1) =   0
                l(2) =   0
                l(3) =   1
                l(4) =   1
                l(5) =   2
                l(6) =   2
                l(7) =   3
                l(8) =   3
     Q(r) pseudized with 0 coefficients 


     PseudoPot. # 2 for H  read from file:
     /work/home/mayuan/workplace/1.typical_hydride/003.MH10/2.CeH10/250/Tc-666-paw/pp/H.pbe-kjpaw_psl.1.0.0.UPF
     MD5 check sum: 3bb27c602ede137025941d095c9090b7
     Pseudo is Projector augmented-wave, Zval =  1.0
     Generated using 'atomic' code by A. Dal Corso  v.7.1
     Shape of augmentation charge: PSQ
     Using radial grid of  929 points,  2 beta functions with: 
                l(1) =   0
                l(2) =   0
     Q(r) pseudized with 0 coefficients 


     atomic species   valence    mass     pseudopotential
     Ce               12.00   140.11600     Ce( 1.00)
     H                 1.00     1.00794     H ( 1.00)

     48 Sym. Ops., with inversion, found


                                    s                        frac. trans.

      isym =  1     identity                                     

 cryst.   s( 1) = (     1          0          0      )
                  (     0          1          0      )
                  (     0          0          1      )

 cart.    s( 1) = (  1.0000000  0.0000000  0.0000000 )
                  (  0.0000000  1.0000000  0.0000000 )
                  (  0.0000000  0.0000000  1.0000000 )


      isym =  2     180 deg rotation - cart. axis [0,0,1]        

 cryst.   s( 2) = (     0          1         -1      )
                  (     1          0         -1      )
                  (     0          0         -1      )

 cart.    s( 2) = ( -1.0000000  0.0000000  0.0000000 )
                  (  0.0000000 -1.0000000  0.0000000 )
                  (  0.0000000  0.0000000  1.0000000 )


      isym =  3     180 deg rotation - cart. axis [0,1,0]        

 cryst.   s( 3) = (     0         -1          1      )
                  (     0         -1          0      )
                  (     1         -1          0      )

 cart.    s( 3) = ( -1.0000000  0.0000000  0.0000000 )
                  (  0.0000000  1.0000000  0.0000000 )
                  (  0.0000000  0.0000000 -1.0000000 )


      isym =  4     180 deg rotation - cart. axis [1,0,0]        

 cryst.   s( 4) = (    -1          0          0      )
                  (    -1          0          1      )
                  (    -1          1          0      )

 cart.    s( 4) = (  1.0000000  0.0000000  0.0000000 )
                  (  0.0000000 -1.0000000  0.0000000 )
                  (  0.0000000  0.0000000 -1.0000000 )


      isym =  5     180 deg rotation - cart. axis [1,1,0]        

 cryst.   s( 5) = (    -1          0          1      )
                  (     0         -1          1      )
                  (     0          0          1      )

 cart.    s( 5) = (  0.0000000  1.0000000  0.0000000 )
                  (  1.0000000  0.0000000  0.0000000 )
                  (  0.0000000  0.0000000 -1.0000000 )


      isym =  6     180 deg rotation - cart. axis [1,-1,0]       

 cryst.   s( 6) = (     0         -1          0      )
                  (    -1          0          0      )
                  (     0          0         -1      )

 cart.    s( 6) = (  0.0000000 -1.0000000  0.0000000 )
                  ( -1.0000000  0.0000000  0.0000000 )
                  (  0.0000000  0.0000000 -1.0000000 )


      isym =  7      90 deg rotation - cart. axis [0,0,-1]       

 cryst.   s( 7) = (     0          1          0      )
                  (     0          1         -1      )
                  (    -1          1          0      )

 cart.    s( 7) = (  0.0000000  1.0000000  0.0000000 )
                  ( -1.0000000  0.0000000  0.0000000 )
                  (  0.0000000  0.0000000  1.0000000 )


      isym =  8      90 deg rotation - cart. axis [0,0,1]        

 cryst.   s( 8) = (     1          0         -1      )
                  (     1          0          0      )
                  (     1         -1          0      )

 cart.    s( 8) = (  0.0000000 -1.0000000  0.0000000 )
                  (  1.0000000  0.0000000  0.0000000 )
                  (  0.0000000  0.0000000  1.0000000 )


      isym =  9     180 deg rotation - cart. axis [1,0,1]        

 cryst.   s( 9) = (    -1          1          0      )
                  (     0          1          0      )
                  (     0          1         -1      )

 cart.    s( 9) = (  0.0000000  0.0000000  1.0000000 )
                  (  0.0000000 -1.0000000  0.0000000 )
                  (  1.0000000  0.0000000  0.0000000 )


      isym = 10     180 deg rotation - cart. axis [-1,0,1]       

 cryst.   s(10) = (     0          0         -1      )
                  (     0         -1          0      )
                  (    -1          0          0      )

 cart.    s(10) = (  0.0000000  0.0000000 -1.0000000 )
                  (  0.0000000 -1.0000000  0.0000000 )
                  ( -1.0000000  0.0000000  0.0000000 )


      isym = 11      90 deg rotation - cart. axis [0,1,0]        

 cryst.   s(11) = (     0          0          1      )
                  (    -1          0          1      )
                  (     0         -1          1      )

 cart.    s(11) = (  0.0000000  0.0000000  1.0000000 )
                  (  0.0000000  1.0000000  0.0000000 )
                  ( -1.0000000  0.0000000  0.0000000 )


      isym = 12      90 deg rotation - cart. axis [0,-1,0]       

 cryst.   s(12) = (     1         -1          0      )
                  (     1          0         -1      )
                  (     1          0          0      )

 cart.    s(12) = (  0.0000000  0.0000000 -1.0000000 )
                  (  0.0000000  1.0000000  0.0000000 )
                  (  1.0000000  0.0000000  0.0000000 )


      isym = 13     180 deg rotation - cart. axis [0,1,1]        

 cryst.   s(13) = (     1          0          0      )
                  (     1         -1          0      )
                  (     1          0         -1      )

 cart.    s(13) = ( -1.0000000  0.0000000  0.0000000 )
                  (  0.0000000  0.0000000  1.0000000 )
                  (  0.0000000  1.0000000  0.0000000 )


      isym = 14     180 deg rotation - cart. axis [0,1,-1]       

 cryst.   s(14) = (    -1          0          0      )
                  (     0          0         -1      )
                  (     0         -1          0      )

 cart.    s(14) = ( -1.0000000  0.0000000  0.0000000 )
                  (  0.0000000  0.0000000 -1.0000000 )
                  (  0.0000000 -1.0000000  0.0000000 )


      isym = 15      90 deg rotation - cart. axis [-1,0,0]       

 cryst.   s(15) = (     0         -1          1      )
                  (     0          0          1      )
                  (    -1          0          1      )

 cart.    s(15) = (  1.0000000  0.0000000  0.0000000 )
                  (  0.0000000  0.0000000  1.0000000 )
                  (  0.0000000 -1.0000000  0.0000000 )


      isym = 16      90 deg rotation - cart. axis [1,0,0]        

 cryst.   s(16) = (     0          1         -1      )
                  (    -1          1          0      )
                  (     0          1          0      )

 cart.    s(16) = (  1.0000000  0.0000000  0.0000000 )
                  (  0.0000000  0.0000000 -1.0000000 )
                  (  0.0000000  1.0000000  0.0000000 )


      isym = 17     120 deg rotation - cart. axis [-1,-1,-1]     

 cryst.   s(17) = (     0          0          1      )
                  (     1          0          0      )
                  (     0          1          0      )

 cart.    s(17) = (  0.0000000  1.0000000  0.0000000 )
                  (  0.0000000  0.0000000  1.0000000 )
                  (  1.0000000  0.0000000  0.0000000 )


      isym = 18     120 deg rotation - cart. axis [-1,1,1]       

 cryst.   s(18) = (     1         -1          0      )
                  (     0         -1          1      )
                  (     0         -1          0      )

 cart.    s(18) = (  0.0000000 -1.0000000  0.0000000 )
                  (  0.0000000  0.0000000  1.0000000 )
                  ( -1.0000000  0.0000000  0.0000000 )


      isym = 19     120 deg rotation - cart. axis [1,1,-1]       

 cryst.   s(19) = (    -1          1          0      )
                  (    -1          0          0      )
                  (    -1          0          1      )

 cart.    s(19) = (  0.0000000  1.0000000  0.0000000 )
                  (  0.0000000  0.0000000 -1.0000000 )
                  ( -1.0000000  0.0000000  0.0000000 )


      isym = 20     120 deg rotation - cart. axis [1,-1,1]       

 cryst.   s(20) = (     0          0         -1      )
                  (     0          1         -1      )
                  (     1          0         -1      )

 cart.    s(20) = (  0.0000000 -1.0000000  0.0000000 )
                  (  0.0000000  0.0000000 -1.0000000 )
                  (  1.0000000  0.0000000  0.0000000 )


      isym = 21     120 deg rotation - cart. axis [1,1,1]        

 cryst.   s(21) = (     0          1          0      )
                  (     0          0          1      )
                  (     1          0          0      )

 cart.    s(21) = (  0.0000000  0.0000000  1.0000000 )
                  (  1.0000000  0.0000000  0.0000000 )
                  (  0.0000000  1.0000000  0.0000000 )


      isym = 22     120 deg rotation - cart. axis [-1,1,-1]      

 cryst.   s(22) = (    -1          0          1      )
                  (    -1          1          0      )
                  (    -1          0          0      )

 cart.    s(22) = (  0.0000000  0.0000000  1.0000000 )
                  ( -1.0000000  0.0000000  0.0000000 )
                  (  0.0000000 -1.0000000  0.0000000 )


      isym = 23     120 deg rotation - cart. axis [1,-1,-1]      

 cryst.   s(23) = (     1          0         -1      )
                  (     0          0         -1      )
                  (     0          1         -1      )

 cart.    s(23) = (  0.0000000  0.0000000 -1.0000000 )
                  ( -1.0000000  0.0000000  0.0000000 )
                  (  0.0000000  1.0000000  0.0000000 )


      isym = 24     120 deg rotation - cart. axis [-1,-1,1]      

 cryst.   s(24) = (     0         -1          0      )
                  (     1         -1          0      )
                  (     0         -1          1      )

 cart.    s(24) = (  0.0000000  0.0000000 -1.0000000 )
                  (  1.0000000  0.0000000  0.0000000 )
                  (  0.0000000 -1.0000000  0.0000000 )


      isym = 25     inversion                                    

 cryst.   s(25) = (    -1          0          0      )
                  (     0         -1          0      )
                  (     0          0         -1      )

 cart.    s(25) = ( -1.0000000  0.0000000  0.0000000 )
                  (  0.0000000 -1.0000000  0.0000000 )
                  (  0.0000000  0.0000000 -1.0000000 )


      isym = 26     inv. 180 deg rotation - cart. axis [0,0,1]   

 cryst.   s(26) = (     0         -1          1      )
                  (    -1          0          1      )
                  (     0          0          1      )

 cart.    s(26) = (  1.0000000  0.0000000  0.0000000 )
                  (  0.0000000  1.0000000  0.0000000 )
                  (  0.0000000  0.0000000 -1.0000000 )


      isym = 27     inv. 180 deg rotation - cart. axis [0,1,0]   

 cryst.   s(27) = (     0          1         -1      )
                  (     0          1          0      )
                  (    -1          1          0      )

 cart.    s(27) = (  1.0000000  0.0000000  0.0000000 )
                  (  0.0000000 -1.0000000  0.0000000 )
                  (  0.0000000  0.0000000  1.0000000 )


      isym = 28     inv. 180 deg rotation - cart. axis [1,0,0]   

 cryst.   s(28) = (     1          0          0      )
                  (     1          0         -1      )
                  (     1         -1          0      )

 cart.    s(28) = ( -1.0000000  0.0000000  0.0000000 )
                  (  0.0000000  1.0000000  0.0000000 )
                  (  0.0000000  0.0000000  1.0000000 )


      isym = 29     inv. 180 deg rotation - cart. axis [1,1,0]   

 cryst.   s(29) = (     1          0         -1      )
                  (     0          1         -1      )
                  (     0          0         -1      )

 cart.    s(29) = (  0.0000000 -1.0000000  0.0000000 )
                  ( -1.0000000  0.0000000  0.0000000 )
                  (  0.0000000  0.0000000  1.0000000 )


      isym = 30     inv. 180 deg rotation - cart. axis [1,-1,0]  

 cryst.   s(30) = (     0          1          0      )
                  (     1          0          0      )
                  (     0          0          1      )

 cart.    s(30) = (  0.0000000  1.0000000  0.0000000 )
                  (  1.0000000  0.0000000  0.0000000 )
                  (  0.0000000  0.0000000  1.0000000 )


      isym = 31     inv.  90 deg rotation - cart. axis [0,0,-1]  

 cryst.   s(31) = (     0         -1          0      )
                  (     0         -1          1      )
                  (     1         -1          0      )

 cart.    s(31) = (  0.0000000 -1.0000000  0.0000000 )
                  (  1.0000000  0.0000000  0.0000000 )
                  (  0.0000000  0.0000000 -1.0000000 )


      isym = 32     inv.  90 deg rotation - cart. axis [0,0,1]   

 cryst.   s(32) = (    -1          0          1      )
                  (    -1          0          0      )
                  (    -1          1          0      )

 cart.    s(32) = (  0.0000000  1.0000000  0.0000000 )
                  ( -1.0000000  0.0000000  0.0000000 )
                  (  0.0000000  0.0000000 -1.0000000 )


      isym = 33     inv. 180 deg rotation - cart. axis [1,0,1]   

 cryst.   s(33) = (     1         -1          0      )
                  (     0         -1          0      )
                  (     0         -1          1      )

 cart.    s(33) = (  0.0000000  0.0000000 -1.0000000 )
                  (  0.0000000  1.0000000  0.0000000 )
                  ( -1.0000000  0.0000000  0.0000000 )


      isym = 34     inv. 180 deg rotation - cart. axis [-1,0,1]  

 cryst.   s(34) = (     0          0          1      )
                  (     0          1          0      )
                  (     1          0          0      )

 cart.    s(34) = (  0.0000000  0.0000000  1.0000000 )
                  (  0.0000000  1.0000000  0.0000000 )
                  (  1.0000000  0.0000000  0.0000000 )


      isym = 35     inv.  90 deg rotation - cart. axis [0,1,0]   

 cryst.   s(35) = (     0          0         -1      )
                  (     1          0         -1      )
                  (     0          1         -1      )

 cart.    s(35) = (  0.0000000  0.0000000 -1.0000000 )
                  (  0.0000000 -1.0000000  0.0000000 )
                  (  1.0000000  0.0000000  0.0000000 )


      isym = 36     inv.  90 deg rotation - cart. axis [0,-1,0]  

 cryst.   s(36) = (    -1          1          0      )
                  (    -1          0          1      )
                  (    -1          0          0      )

 cart.    s(36) = (  0.0000000  0.0000000  1.0000000 )
                  (  0.0000000 -1.0000000  0.0000000 )
                  ( -1.0000000  0.0000000  0.0000000 )


      isym = 37     inv. 180 deg rotation - cart. axis [0,1,1]   

 cryst.   s(37) = (    -1          0          0      )
                  (    -1          1          0      )
                  (    -1          0          1      )

 cart.    s(37) = (  1.0000000  0.0000000  0.0000000 )
                  (  0.0000000  0.0000000 -1.0000000 )
                  (  0.0000000 -1.0000000  0.0000000 )


      isym = 38     inv. 180 deg rotation - cart. axis [0,1,-1]  

 cryst.   s(38) = (     1          0          0      )
                  (     0          0          1      )
                  (     0          1          0      )

 cart.    s(38) = (  1.0000000  0.0000000  0.0000000 )
                  (  0.0000000  0.0000000  1.0000000 )
                  (  0.0000000  1.0000000  0.0000000 )


      isym = 39     inv.  90 deg rotation - cart. axis [-1,0,0]  

 cryst.   s(39) = (     0          1         -1      )
                  (     0          0         -1      )
                  (     1          0         -1      )

 cart.    s(39) = ( -1.0000000  0.0000000  0.0000000 )
                  (  0.0000000  0.0000000 -1.0000000 )
                  (  0.0000000  1.0000000  0.0000000 )


      isym = 40     inv.  90 deg rotation - cart. axis [1,0,0]   

 cryst.   s(40) = (     0         -1          1      )
                  (     1         -1          0      )
                  (     0         -1          0      )

 cart.    s(40) = ( -1.0000000  0.0000000  0.0000000 )
                  (  0.0000000  0.0000000  1.0000000 )
                  (  0.0000000 -1.0000000  0.0000000 )


      isym = 41     inv. 120 deg rotation - cart. axis [-1,-1,-1]

 cryst.   s(41) = (     0          0         -1      )
                  (    -1          0          0      )
                  (     0         -1          0      )

 cart.    s(41) = (  0.0000000 -1.0000000  0.0000000 )
                  (  0.0000000  0.0000000 -1.0000000 )
                  ( -1.0000000  0.0000000  0.0000000 )


      isym = 42     inv. 120 deg rotation - cart. axis [-1,1,1]  

 cryst.   s(42) = (    -1          1          0      )
                  (     0          1         -1      )
                  (     0          1          0      )

 cart.    s(42) = (  0.0000000  1.0000000  0.0000000 )
                  (  0.0000000  0.0000000 -1.0000000 )
                  (  1.0000000  0.0000000  0.0000000 )


      isym = 43     inv. 120 deg rotation - cart. axis [1,1,-1]  

 cryst.   s(43) = (     1         -1          0      )
                  (     1          0          0      )
                  (     1          0         -1      )

 cart.    s(43) = (  0.0000000 -1.0000000  0.0000000 )
                  (  0.0000000  0.0000000  1.0000000 )
                  (  1.0000000  0.0000000  0.0000000 )


      isym = 44     inv. 120 deg rotation - cart. axis [1,-1,1]  

 cryst.   s(44) = (     0          0          1      )
                  (     0         -1          1      )
                  (    -1          0          1      )

 cart.    s(44) = (  0.0000000  1.0000000  0.0000000 )
                  (  0.0000000  0.0000000  1.0000000 )
                  ( -1.0000000  0.0000000  0.0000000 )


      isym = 45     inv. 120 deg rotation - cart. axis [1,1,1]   

 cryst.   s(45) = (     0         -1          0      )
                  (     0          0         -1      )
                  (    -1          0          0      )

 cart.    s(45) = (  0.0000000  0.0000000 -1.0000000 )
                  ( -1.0000000  0.0000000  0.0000000 )
                  (  0.0000000 -1.0000000  0.0000000 )


      isym = 46     inv. 120 deg rotation - cart. axis [-1,1,-1] 

 cryst.   s(46) = (     1          0         -1      )
                  (     1         -1          0      )
                  (     1          0          0      )

 cart.    s(46) = (  0.0000000  0.0000000 -1.0000000 )
                  (  1.0000000  0.0000000  0.0000000 )
                  (  0.0000000  1.0000000  0.0000000 )


      isym = 47     inv. 120 deg rotation - cart. axis [1,-1,-1] 

 cryst.   s(47) = (    -1          0          1      )
                  (     0          0          1      )
                  (     0         -1          1      )

 cart.    s(47) = (  0.0000000  0.0000000  1.0000000 )
                  (  1.0000000  0.0000000  0.0000000 )
                  (  0.0000000 -1.0000000  0.0000000 )


      isym = 48     inv. 120 deg rotation - cart. axis [-1,-1,1] 

 cryst.   s(48) = (     0          1          0      )
                  (    -1          1          0      )
                  (     0          1         -1      )

 cart.    s(48) = (  0.0000000  0.0000000  1.0000000 )
                  ( -1.0000000  0.0000000  0.0000000 )
                  (  0.0000000  1.0000000  0.0000000 )


   Cartesian axes

     site n.     atom                  positions (alat units)
         1        Ce     tau(   1) = (   0.7071068   0.7071068   0.7071068  )
         2        H      tau(   2) = (   0.3535534   0.3535534   0.3535534  )
         3        H      tau(   3) = (   1.0606602   1.0606602   1.0606602  )
         4        H      tau(   4) = (   1.2411448   1.2411448   1.2411448  )
         5        H      tau(   5) = (   0.1730688   0.1730688   0.1730688  )
         6        H      tau(   6) = (   0.8801755   0.8801755   1.2411448  )
         7        H      tau(   7) = (   0.5340380   0.5340380   0.1730688  )
         8        H      tau(   8) = (   0.8801755   1.2411448   0.8801755  )
         9        H      tau(   9) = (   0.5340380   0.1730688   0.5340380  )
        10        H      tau(  10) = (   1.2411448   0.8801755   0.8801755  )
        11        H      tau(  11) = (   0.1730688   0.5340380   0.5340380  )

   Crystallographic axes

     site n.     atom                  positions (cryst. coord.)
         1        Ce     tau(   1) = (  0.5000000  0.5000000  0.5000000  )
         2        H      tau(   2) = (  0.2500000  0.2500000  0.2500000  )
         3        H      tau(   3) = (  0.7500000  0.7500000  0.7500000  )
         4        H      tau(   4) = (  0.8776219  0.8776219  0.8776219  )
         5        H      tau(   5) = (  0.1223781  0.1223781  0.1223781  )
         6        H      tau(   6) = (  0.8776219  0.8776219  0.3671343  )
         7        H      tau(   7) = (  0.1223781  0.1223781  0.6328657  )
         8        H      tau(   8) = (  0.8776219  0.3671343  0.8776219  )
         9        H      tau(   9) = (  0.1223781  0.6328657  0.1223781  )
        10        H      tau(  10) = (  0.3671343  0.8776219  0.8776219  )
        11        H      tau(  11) = (  0.6328657  0.1223781  0.1223781  )

     number of k points=   413  Gaussian smearing, width (Ry)=  0.0200
                       cart. coord. in units 2pi/alat
        k(    1) = (   0.0000000   0.0000000   0.0000000), wk =   0.0001447
        k(    2) = (   0.0294628   0.0294628  -0.0294628), wk =   0.0011574
        k(    3) = (   0.0589256   0.0589256  -0.0589256), wk =   0.0011574
        k(    4) = (   0.0883883   0.0883883  -0.0883883), wk =   0.0011574
        k(    5) = (   0.1178511   0.1178511  -0.1178511), wk =   0.0011574
        k(    6) = (   0.1473139   0.1473139  -0.1473139), wk =   0.0011574
        k(    7) = (   0.1767767   0.1767767  -0.1767767), wk =   0.0011574
        k(    8) = (   0.2062395   0.2062395  -0.2062395), wk =   0.0011574
        k(    9) = (   0.2357023   0.2357023  -0.2357023), wk =   0.0011574
        k(   10) = (   0.2651650   0.2651650  -0.2651650), wk =   0.0011574
        k(   11) = (   0.2946278   0.2946278  -0.2946278), wk =   0.0011574
        k(   12) = (   0.3240906   0.3240906  -0.3240906), wk =   0.0011574
        k(   13) = (  -0.3535534  -0.3535534   0.3535534), wk =   0.0005787
        k(   14) = (   0.0589256   0.0000000   0.0000000), wk =   0.0008681
        k(   15) = (   0.0883883   0.0294628  -0.0294628), wk =   0.0034722
        k(   16) = (   0.1178511   0.0589256  -0.0589256), wk =   0.0034722
        k(   17) = (   0.1473139   0.0883883  -0.0883883), wk =   0.0034722
        k(   18) = (   0.1767767   0.1178511  -0.1178511), wk =   0.0034722
        k(   19) = (   0.2062395   0.1473139  -0.1473139), wk =   0.0034722
        k(   20) = (   0.2357023   0.1767767  -0.1767767), wk =   0.0034722
        k(   21) = (   0.2651650   0.2062395  -0.2062395), wk =   0.0034722
        k(   22) = (   0.2946278   0.2357023  -0.2357023), wk =   0.0034722
        k(   23) = (   0.3240906   0.2651650  -0.2651650), wk =   0.0034722
        k(   24) = (   0.3535534   0.2946278  -0.2946278), wk =   0.0034722
        k(   25) = (  -0.3240906  -0.3830162   0.3830162), wk =   0.0034722
        k(   26) = (  -0.2946278  -0.3535534   0.3535534), wk =   0.0034722
        k(   27) = (  -0.2651650  -0.3240906   0.3240906), wk =   0.0034722
        k(   28) = (  -0.2357023  -0.2946278   0.2946278), wk =   0.0034722
        k(   29) = (  -0.2062395  -0.2651650   0.2651650), wk =   0.0034722
        k(   30) = (  -0.1767767  -0.2357023   0.2357023), wk =   0.0034722
        k(   31) = (  -0.1473139  -0.2062395   0.2062395), wk =   0.0034722
        k(   32) = (  -0.1178511  -0.1767767   0.1767767), wk =   0.0034722
        k(   33) = (  -0.0883883  -0.1473139   0.1473139), wk =   0.0034722
        k(   34) = (  -0.0589256  -0.1178511   0.1178511), wk =   0.0034722
        k(   35) = (  -0.0294628  -0.0883883   0.0883883), wk =   0.0034722
        k(   36) = (   0.0000000  -0.0589256   0.0589256), wk =   0.0017361
        k(   37) = (   0.1178511   0.0000000   0.0000000), wk =   0.0008681
        k(   38) = (   0.1473139   0.0294628  -0.0294628), wk =   0.0034722
        k(   39) = (   0.1767767   0.0589256  -0.0589256), wk =   0.0034722
        k(   40) = (   0.2062395   0.0883883  -0.0883883), wk =   0.0034722
        k(   41) = (   0.2357023   0.1178511  -0.1178511), wk =   0.0034722
        k(   42) = (   0.2651650   0.1473139  -0.1473139), wk =   0.0034722
        k(   43) = (   0.2946278   0.1767767  -0.1767767), wk =   0.0034722
        k(   44) = (   0.3240906   0.2062395  -0.2062395), wk =   0.0034722
        k(   45) = (   0.3535534   0.2357023  -0.2357023), wk =   0.0034722
        k(   46) = (   0.3830162   0.2651650  -0.2651650), wk =   0.0034722
        k(   47) = (  -0.2946278  -0.4124790   0.4124790), wk =   0.0034722
        k(   48) = (  -0.2651650  -0.3830162   0.3830162), wk =   0.0034722
        k(   49) = (  -0.2357023  -0.3535534   0.3535534), wk =   0.0034722
        k(   50) = (  -0.2062395  -0.3240906   0.3240906), wk =   0.0034722
        k(   51) = (  -0.1767767  -0.2946278   0.2946278), wk =   0.0034722
        k(   52) = (  -0.1473139  -0.2651650   0.2651650), wk =   0.0034722
        k(   53) = (  -0.1178511  -0.2357023   0.2357023), wk =   0.0034722
        k(   54) = (  -0.0883883  -0.2062395   0.2062395), wk =   0.0034722
        k(   55) = (  -0.0589256  -0.1767767   0.1767767), wk =   0.0034722
        k(   56) = (  -0.0294628  -0.1473139   0.1473139), wk =   0.0034722
        k(   57) = (  -0.0000000  -0.1178511   0.1178511), wk =   0.0017361
        k(   58) = (   0.1767767   0.0000000   0.0000000), wk =   0.0008681
        k(   59) = (   0.2062395   0.0294628  -0.0294628), wk =   0.0034722
        k(   60) = (   0.2357023   0.0589256  -0.0589256), wk =   0.0034722
        k(   61) = (   0.2651650   0.0883883  -0.0883883), wk =   0.0034722
        k(   62) = (   0.2946278   0.1178511  -0.1178511), wk =   0.0034722
        k(   63) = (   0.3240906   0.1473139  -0.1473139), wk =   0.0034722
        k(   64) = (   0.3535534   0.1767767  -0.1767767), wk =   0.0034722
        k(   65) = (   0.3830162   0.2062395  -0.2062395), wk =   0.0034722
        k(   66) = (   0.4124790   0.2357023  -0.2357023), wk =   0.0034722
        k(   67) = (  -0.2651650  -0.4419417   0.4419417), wk =   0.0034722
        k(   68) = (  -0.2357023  -0.4124790   0.4124790), wk =   0.0034722
        k(   69) = (  -0.2062395  -0.3830162   0.3830162), wk =   0.0034722
        k(   70) = (  -0.1767767  -0.3535534   0.3535534), wk =   0.0034722
        k(   71) = (  -0.1473139  -0.3240906   0.3240906), wk =   0.0034722
        k(   72) = (  -0.1178511  -0.2946278   0.2946278), wk =   0.0034722
        k(   73) = (  -0.0883883  -0.2651650   0.2651650), wk =   0.0034722
        k(   74) = (  -0.0589256  -0.2357023   0.2357023), wk =   0.0034722
        k(   75) = (  -0.0294628  -0.2062395   0.2062395), wk =   0.0034722
        k(   76) = (   0.0000000  -0.1767767   0.1767767), wk =   0.0017361
        k(   77) = (   0.2357023   0.0000000   0.0000000), wk =   0.0008681
        k(   78) = (   0.2651650   0.0294628  -0.0294628), wk =   0.0034722
        k(   79) = (   0.2946278   0.0589256  -0.0589256), wk =   0.0034722
        k(   80) = (   0.3240906   0.0883883  -0.0883883), wk =   0.0034722
        k(   81) = (   0.3535534   0.1178511  -0.1178511), wk =   0.0034722
        k(   82) = (   0.3830162   0.1473139  -0.1473139), wk =   0.0034722
        k(   83) = (   0.4124790   0.1767767  -0.1767767), wk =   0.0034722
        k(   84) = (   0.4419417   0.2062395  -0.2062395), wk =   0.0034722
        k(   85) = (  -0.2357023  -0.4714045   0.4714045), wk =   0.0034722
        k(   86) = (  -0.2062395  -0.4419417   0.4419417), wk =   0.0034722
        k(   87) = (  -0.1767767  -0.4124790   0.4124790), wk =   0.0034722
        k(   88) = (  -0.1473139  -0.3830162   0.3830162), wk =   0.0034722
        k(   89) = (  -0.1178511  -0.3535534   0.3535534), wk =   0.0034722
        k(   90) = (  -0.0883883  -0.3240906   0.3240906), wk =   0.0034722
        k(   91) = (  -0.0589256  -0.2946278   0.2946278), wk =   0.0034722
        k(   92) = (  -0.0294628  -0.2651650   0.2651650), wk =   0.0034722
        k(   93) = (   0.0000000  -0.2357023   0.2357023), wk =   0.0017361
        k(   94) = (   0.2946278   0.0000000   0.0000000), wk =   0.0008681
        k(   95) = (   0.3240906   0.0294628  -0.0294628), wk =   0.0034722
        k(   96) = (   0.3535534   0.0589256  -0.0589256), wk =   0.0034722
        k(   97) = (   0.3830162   0.0883883  -0.0883883), wk =   0.0034722
        k(   98) = (   0.4124790   0.1178511  -0.1178511), wk =   0.0034722
        k(   99) = (   0.4419417   0.1473139  -0.1473139), wk =   0.0034722
        k(  100) = (   0.4714045   0.1767767  -0.1767767), wk =   0.0034722
        k(  101) = (  -0.2062395  -0.5008673   0.5008673), wk =   0.0034722
        k(  102) = (  -0.1767767  -0.4714045   0.4714045), wk =   0.0034722
        k(  103) = (  -0.1473139  -0.4419417   0.4419417), wk =   0.0034722
        k(  104) = (  -0.1178511  -0.4124790   0.4124790), wk =   0.0034722
        k(  105) = (  -0.0883883  -0.3830162   0.3830162), wk =   0.0034722
        k(  106) = (  -0.0589256  -0.3535534   0.3535534), wk =   0.0034722
        k(  107) = (  -0.0294628  -0.3240906   0.3240906), wk =   0.0034722
        k(  108) = (  -0.0000000  -0.2946278   0.2946278), wk =   0.0017361
        k(  109) = (   0.3535534   0.0000000   0.0000000), wk =   0.0008681
        k(  110) = (   0.3830162   0.0294628  -0.0294628), wk =   0.0034722
        k(  111) = (   0.4124790   0.0589256  -0.0589256), wk =   0.0034722
        k(  112) = (   0.4419417   0.0883883  -0.0883883), wk =   0.0034722
        k(  113) = (   0.4714045   0.1178511  -0.1178511), wk =   0.0034722
        k(  114) = (   0.5008673   0.1473139  -0.1473139), wk =   0.0034722
        k(  115) = (  -0.1767767  -0.5303301   0.5303301), wk =   0.0034722
        k(  116) = (  -0.1473139  -0.5008673   0.5008673), wk =   0.0034722
        k(  117) = (  -0.1178511  -0.4714045   0.4714045), wk =   0.0034722
        k(  118) = (  -0.0883883  -0.4419417   0.4419417), wk =   0.0034722
        k(  119) = (  -0.0589256  -0.4124790   0.4124790), wk =   0.0034722
        k(  120) = (  -0.0294628  -0.3830162   0.3830162), wk =   0.0034722
        k(  121) = (   0.0000000  -0.3535534   0.3535534), wk =   0.0017361
        k(  122) = (   0.4124790   0.0000000   0.0000000), wk =   0.0008681
        k(  123) = (   0.4419417   0.0294628  -0.0294628), wk =   0.0034722
        k(  124) = (   0.4714045   0.0589256  -0.0589256), wk =   0.0034722
        k(  125) = (   0.5008673   0.0883883  -0.0883883), wk =   0.0034722
        k(  126) = (   0.5303301   0.1178511  -0.1178511), wk =   0.0034722
        k(  127) = (  -0.1473139  -0.5597929   0.5597929), wk =   0.0034722
        k(  128) = (  -0.1178511  -0.5303301   0.5303301), wk =   0.0034722
        k(  129) = (  -0.0883883  -0.5008673   0.5008673), wk =   0.0034722
        k(  130) = (  -0.0589256  -0.4714045   0.4714045), wk =   0.0034722
        k(  131) = (  -0.0294628  -0.4419417   0.4419417), wk =   0.0034722
        k(  132) = (   0.0000000  -0.4124790   0.4124790), wk =   0.0017361
        k(  133) = (   0.4714045   0.0000000   0.0000000), wk =   0.0008681
        k(  134) = (   0.5008673   0.0294628  -0.0294628), wk =   0.0034722
        k(  135) = (   0.5303301   0.0589256  -0.0589256), wk =   0.0034722
        k(  136) = (   0.5597929   0.0883883  -0.0883883), wk =   0.0034722
        k(  137) = (  -0.1178511  -0.5892557   0.5892557), wk =   0.0034722
        k(  138) = (  -0.0883883  -0.5597929   0.5597929), wk =   0.0034722
        k(  139) = (  -0.0589256  -0.5303301   0.5303301), wk =   0.0034722
        k(  140) = (  -0.0294628  -0.5008673   0.5008673), wk =   0.0034722
        k(  141) = (  -0.0000000  -0.4714045   0.4714045), wk =   0.0017361
        k(  142) = (   0.5303301   0.0000000   0.0000000), wk =   0.0008681
        k(  143) = (   0.5597929   0.0294628  -0.0294628), wk =   0.0034722
        k(  144) = (   0.5892557   0.0589256  -0.0589256), wk =   0.0034722
        k(  145) = (  -0.0883883  -0.6187184   0.6187184), wk =   0.0034722
        k(  146) = (  -0.0589256  -0.5892557   0.5892557), wk =   0.0034722
        k(  147) = (  -0.0294628  -0.5597929   0.5597929), wk =   0.0034722
        k(  148) = (   0.0000000  -0.5303301   0.5303301), wk =   0.0017361
        k(  149) = (   0.5892557   0.0000000   0.0000000), wk =   0.0008681
        k(  150) = (   0.6187184   0.0294628  -0.0294628), wk =   0.0034722
        k(  151) = (  -0.0589256  -0.6481812   0.6481812), wk =   0.0034722
        k(  152) = (  -0.0294628  -0.6187184   0.6187184), wk =   0.0034722
        k(  153) = (   0.0000000  -0.5892557   0.5892557), wk =   0.0017361
        k(  154) = (   0.6481812   0.0000000   0.0000000), wk =   0.0008681
        k(  155) = (  -0.0294628  -0.6776440   0.6776440), wk =   0.0034722
        k(  156) = (  -0.0000000  -0.6481812   0.6481812), wk =   0.0017361
        k(  157) = (  -0.7071068   0.0000000   0.0000000), wk =   0.0004340
        k(  158) = (   0.1178511   0.0589256  -0.0000000), wk =   0.0034722
        k(  159) = (   0.1473139   0.0883883  -0.0294628), wk =   0.0069444
        k(  160) = (   0.1767767   0.1178511  -0.0589256), wk =   0.0069444
        k(  161) = (   0.2062395   0.1473139  -0.0883883), wk =   0.0069444
        k(  162) = (   0.2357023   0.1767767  -0.1178511), wk =   0.0069444
        k(  163) = (   0.2651650   0.2062395  -0.1473139), wk =   0.0069444
        k(  164) = (   0.2946278   0.2357023  -0.1767767), wk =   0.0069444
        k(  165) = (   0.3240906   0.2651650  -0.2062395), wk =   0.0069444
        k(  166) = (   0.3535534   0.2946278  -0.2357023), wk =   0.0069444
        k(  167) = (  -0.3240906  -0.3830162   0.4419417), wk =   0.0069444
        k(  168) = (  -0.2946278  -0.3535534   0.4124790), wk =   0.0034722
        k(  169) = (   0.1767767   0.0589256   0.0000000), wk =   0.0034722
        k(  170) = (   0.2062395   0.0883883  -0.0294628), wk =   0.0069444
        k(  171) = (   0.2357023   0.1178511  -0.0589256), wk =   0.0069444
        k(  172) = (   0.2651650   0.1473139  -0.0883883), wk =   0.0069444
        k(  173) = (   0.2946278   0.1767767  -0.1178511), wk =   0.0069444
        k(  174) = (   0.3240906   0.2062395  -0.1473139), wk =   0.0069444
        k(  175) = (   0.3535534   0.2357023  -0.1767767), wk =   0.0069444
        k(  176) = (   0.3830162   0.2651650  -0.2062395), wk =   0.0069444
        k(  177) = (  -0.2946278  -0.4124790   0.4714045), wk =   0.0069444
        k(  178) = (  -0.2651650  -0.3830162   0.4419417), wk =   0.0069444
        k(  179) = (  -0.2357023  -0.3535534   0.4124790), wk =   0.0069444
        k(  180) = (  -0.2062395  -0.3240906   0.3830162), wk =   0.0069444
        k(  181) = (  -0.1767767  -0.2946278   0.3535534), wk =   0.0069444
        k(  182) = (  -0.1473139  -0.2651650   0.3240906), wk =   0.0069444
        k(  183) = (  -0.1178511  -0.2357023   0.2946278), wk =   0.0069444
        k(  184) = (  -0.0883883  -0.2062395   0.2651650), wk =   0.0069444
        k(  185) = (  -0.0589256  -0.1767767   0.2357023), wk =   0.0069444
        k(  186) = (  -0.0294628  -0.1473139   0.2062395), wk =   0.0069444
        k(  187) = (  -0.0000000  -0.1178511   0.1767767), wk =   0.0034722
        k(  188) = (   0.2357023   0.0589256   0.0000000), wk =   0.0034722
        k(  189) = (   0.2651650   0.0883883  -0.0294628), wk =   0.0069444
        k(  190) = (   0.2946278   0.1178511  -0.0589256), wk =   0.0069444
        k(  191) = (   0.3240906   0.1473139  -0.0883883), wk =   0.0069444
        k(  192) = (   0.3535534   0.1767767  -0.1178511), wk =   0.0069444
        k(  193) = (   0.3830162   0.2062395  -0.1473139), wk =   0.0069444
        k(  194) = (   0.4124790   0.2357023  -0.1767767), wk =   0.0069444
        k(  195) = (  -0.2651650  -0.4419417   0.5008673), wk =   0.0069444
        k(  196) = (  -0.2357023  -0.4124790   0.4714045), wk =   0.0069444
        k(  197) = (  -0.2062395  -0.3830162   0.4419417), wk =   0.0069444
        k(  198) = (  -0.1767767  -0.3535534   0.4124790), wk =   0.0069444
        k(  199) = (  -0.1473139  -0.3240906   0.3830162), wk =   0.0069444
        k(  200) = (  -0.1178511  -0.2946278   0.3535534), wk =   0.0069444
        k(  201) = (  -0.0883883  -0.2651650   0.3240906), wk =   0.0069444
        k(  202) = (  -0.0589256  -0.2357023   0.2946278), wk =   0.0069444
        k(  203) = (  -0.0294628  -0.2062395   0.2651650), wk =   0.0069444
        k(  204) = (  -0.0000000  -0.1767767   0.2357023), wk =   0.0034722
        k(  205) = (   0.2946278   0.0589256   0.0000000), wk =   0.0034722
        k(  206) = (   0.3240906   0.0883883  -0.0294628), wk =   0.0069444
        k(  207) = (   0.3535534   0.1178511  -0.0589256), wk =   0.0069444
        k(  208) = (   0.3830162   0.1473139  -0.0883883), wk =   0.0069444
        k(  209) = (   0.4124790   0.1767767  -0.1178511), wk =   0.0069444
        k(  210) = (   0.4419417   0.2062395  -0.1473139), wk =   0.0069444
        k(  211) = (  -0.2357023  -0.4714045   0.5303301), wk =   0.0069444
        k(  212) = (  -0.2062395  -0.4419417   0.5008673), wk =   0.0069444
        k(  213) = (  -0.1767767  -0.4124790   0.4714045), wk =   0.0069444
        k(  214) = (  -0.1473139  -0.3830162   0.4419417), wk =   0.0069444
        k(  215) = (  -0.1178511  -0.3535534   0.4124790), wk =   0.0069444
        k(  216) = (  -0.0883883  -0.3240906   0.3830162), wk =   0.0069444
        k(  217) = (  -0.0589256  -0.2946278   0.3535534), wk =   0.0069444
        k(  218) = (  -0.0294628  -0.2651650   0.3240906), wk =   0.0069444
        k(  219) = (   0.0000000  -0.2357023   0.2946278), wk =   0.0034722
        k(  220) = (   0.3535534   0.0589256   0.0000000), wk =   0.0034722
        k(  221) = (   0.3830162   0.0883883  -0.0294628), wk =   0.0069444
        k(  222) = (   0.4124790   0.1178511  -0.0589256), wk =   0.0069444
        k(  223) = (   0.4419417   0.1473139  -0.0883883), wk =   0.0069444
        k(  224) = (   0.4714045   0.1767767  -0.1178511), wk =   0.0069444
        k(  225) = (  -0.2062395  -0.5008673   0.5597929), wk =   0.0069444
        k(  226) = (  -0.1767767  -0.4714045   0.5303301), wk =   0.0069444
        k(  227) = (  -0.1473139  -0.4419417   0.5008673), wk =   0.0069444
        k(  228) = (  -0.1178511  -0.4124790   0.4714045), wk =   0.0069444
        k(  229) = (  -0.0883883  -0.3830162   0.4419417), wk =   0.0069444
        k(  230) = (  -0.0589256  -0.3535534   0.4124790), wk =   0.0069444
        k(  231) = (  -0.0294628  -0.3240906   0.3830162), wk =   0.0069444
        k(  232) = (  -0.0000000  -0.2946278   0.3535534), wk =   0.0034722
        k(  233) = (   0.4124790   0.0589256   0.0000000), wk =   0.0034722
        k(  234) = (   0.4419417   0.0883883  -0.0294628), wk =   0.0069444
        k(  235) = (   0.4714045   0.1178511  -0.0589256), wk =   0.0069444
        k(  236) = (   0.5008673   0.1473139  -0.0883883), wk =   0.0069444
        k(  237) = (  -0.1767767  -0.5303301   0.5892557), wk =   0.0069444
        k(  238) = (  -0.1473139  -0.5008673   0.5597929), wk =   0.0069444
        k(  239) = (  -0.1178511  -0.4714045   0.5303301), wk =   0.0069444
        k(  240) = (  -0.0883883  -0.4419417   0.5008673), wk =   0.0069444
        k(  241) = (  -0.0589256  -0.4124790   0.4714045), wk =   0.0069444
        k(  242) = (  -0.0294628  -0.3830162   0.4419417), wk =   0.0069444
        k(  243) = (   0.0000000  -0.3535534   0.4124790), wk =   0.0034722
        k(  244) = (   0.4714045   0.0589256  -0.0000000), wk =   0.0034722
        k(  245) = (   0.5008673   0.0883883  -0.0294628), wk =   0.0069444
        k(  246) = (   0.5303301   0.1178511  -0.0589256), wk =   0.0069444
        k(  247) = (  -0.1473139  -0.5597929   0.6187184), wk =   0.0069444
        k(  248) = (  -0.1178511  -0.5303301   0.5892557), wk =   0.0069444
        k(  249) = (  -0.0883883  -0.5008673   0.5597929), wk =   0.0069444
        k(  250) = (  -0.0589256  -0.4714045   0.5303301), wk =   0.0069444
        k(  251) = (  -0.0294628  -0.4419417   0.5008673), wk =   0.0069444
        k(  252) = (   0.0000000  -0.4124790   0.4714045), wk =   0.0034722
        k(  253) = (   0.5303301   0.0589256   0.0000000), wk =   0.0034722
        k(  254) = (   0.5597929   0.0883883  -0.0294628), wk =   0.0069444
        k(  255) = (  -0.1178511  -0.5892557   0.6481812), wk =   0.0069444
        k(  256) = (  -0.0883883  -0.5597929   0.6187184), wk =   0.0069444
        k(  257) = (  -0.0589256  -0.5303301   0.5892557), wk =   0.0069444
        k(  258) = (  -0.0294628  -0.5008673   0.5597929), wk =   0.0069444
        k(  259) = (  -0.0000000  -0.4714045   0.5303301), wk =   0.0034722
        k(  260) = (   0.5892557   0.0589256   0.0000000), wk =   0.0034722
        k(  261) = (  -0.0883883  -0.6187184   0.6776440), wk =   0.0069444
        k(  262) = (  -0.0589256  -0.5892557   0.6481812), wk =   0.0069444
        k(  263) = (  -0.0294628  -0.5597929   0.6187184), wk =   0.0069444
        k(  264) = (   0.0000000  -0.5303301   0.5892557), wk =   0.0034722
        k(  265) = (  -0.0589256  -0.6481812   0.7071068), wk =   0.0034722
        k(  266) = (  -0.0294628  -0.6187184   0.6776440), wk =   0.0069444
        k(  267) = (   0.0000000  -0.5892557   0.6481812), wk =   0.0034722
        k(  268) = (  -0.7071068   0.0589256   0.0000000), wk =   0.0017361
        k(  269) = (   0.2357023   0.1178511  -0.0000000), wk =   0.0034722
        k(  270) = (   0.2651650   0.1473139  -0.0294628), wk =   0.0069444
        k(  271) = (   0.2946278   0.1767767  -0.0589256), wk =   0.0069444
        k(  272) = (   0.3240906   0.2062395  -0.0883883), wk =   0.0069444
        k(  273) = (   0.3535534   0.2357023  -0.1178511), wk =   0.0069444
        k(  274) = (   0.3830162   0.2651650  -0.1473139), wk =   0.0069444
        k(  275) = (  -0.2946278  -0.4124790   0.5303301), wk =   0.0069444
        k(  276) = (  -0.2651650  -0.3830162   0.5008673), wk =   0.0069444
        k(  277) = (  -0.2357023  -0.3535534   0.4714045), wk =   0.0034722
        k(  278) = (   0.2946278   0.1178511   0.0000000), wk =   0.0034722
        k(  279) = (   0.3240906   0.1473139  -0.0294628), wk =   0.0069444
        k(  280) = (   0.3535534   0.1767767  -0.0589256), wk =   0.0069444
        k(  281) = (   0.3830162   0.2062395  -0.0883883), wk =   0.0069444
        k(  282) = (   0.4124790   0.2357023  -0.1178511), wk =   0.0069444
        k(  283) = (  -0.2651650  -0.4419417   0.5597929), wk =   0.0069444
        k(  284) = (  -0.2357023  -0.4124790   0.5303301), wk =   0.0069444
        k(  285) = (  -0.2062395  -0.3830162   0.5008673), wk =   0.0069444
        k(  286) = (  -0.1767767  -0.3535534   0.4714045), wk =   0.0069444
        k(  287) = (  -0.1473139  -0.3240906   0.4419417), wk =   0.0069444
        k(  288) = (  -0.1178511  -0.2946278   0.4124790), wk =   0.0069444
        k(  289) = (  -0.0883883  -0.2651650   0.3830162), wk =   0.0069444
        k(  290) = (  -0.0589256  -0.2357023   0.3535534), wk =   0.0069444
        k(  291) = (  -0.0294628  -0.2062395   0.3240906), wk =   0.0069444
        k(  292) = (   0.0000000  -0.1767767   0.2946278), wk =   0.0034722
        k(  293) = (   0.3535534   0.1178511   0.0000000), wk =   0.0034722
        k(  294) = (   0.3830162   0.1473139  -0.0294628), wk =   0.0069444
        k(  295) = (   0.4124790   0.1767767  -0.0589256), wk =   0.0069444
        k(  296) = (   0.4419417   0.2062395  -0.0883883), wk =   0.0069444
        k(  297) = (  -0.2357023  -0.4714045   0.5892557), wk =   0.0069444
        k(  298) = (  -0.2062395  -0.4419417   0.5597929), wk =   0.0069444
        k(  299) = (  -0.1767767  -0.4124790   0.5303301), wk =   0.0069444
        k(  300) = (  -0.1473139  -0.3830162   0.5008673), wk =   0.0069444
        k(  301) = (  -0.1178511  -0.3535534   0.4714045), wk =   0.0069444
        k(  302) = (  -0.0883883  -0.3240906   0.4419417), wk =   0.0069444
        k(  303) = (  -0.0589256  -0.2946278   0.4124790), wk =   0.0069444
        k(  304) = (  -0.0294628  -0.2651650   0.3830162), wk =   0.0069444
        k(  305) = (   0.0000000  -0.2357023   0.3535534), wk =   0.0034722
        k(  306) = (   0.4124790   0.1178511   0.0000000), wk =   0.0034722
        k(  307) = (   0.4419417   0.1473139  -0.0294628), wk =   0.0069444
        k(  308) = (   0.4714045   0.1767767  -0.0589256), wk =   0.0069444
        k(  309) = (  -0.2062395  -0.5008673   0.6187184), wk =   0.0069444
        k(  310) = (  -0.1767767  -0.4714045   0.5892557), wk =   0.0069444
        k(  311) = (  -0.1473139  -0.4419417   0.5597929), wk =   0.0069444
        k(  312) = (  -0.1178511  -0.4124790   0.5303301), wk =   0.0069444
        k(  313) = (  -0.0883883  -0.3830162   0.5008673), wk =   0.0069444
        k(  314) = (  -0.0589256  -0.3535534   0.4714045), wk =   0.0069444
        k(  315) = (  -0.0294628  -0.3240906   0.4419417), wk =   0.0069444
        k(  316) = (  -0.0000000  -0.2946278   0.4124790), wk =   0.0034722
        k(  317) = (   0.4714045   0.1178511   0.0000000), wk =   0.0034722
        k(  318) = (   0.5008673   0.1473139  -0.0294628), wk =   0.0069444
        k(  319) = (  -0.1767767  -0.5303301   0.6481812), wk =   0.0069444
        k(  320) = (  -0.1473139  -0.5008673   0.6187184), wk =   0.0069444
        k(  321) = (  -0.1178511  -0.4714045   0.5892557), wk =   0.0069444
        k(  322) = (  -0.0883883  -0.4419417   0.5597929), wk =   0.0069444
        k(  323) = (  -0.0589256  -0.4124790   0.5303301), wk =   0.0069444
        k(  324) = (  -0.0294628  -0.3830162   0.5008673), wk =   0.0069444
        k(  325) = (  -0.0000000  -0.3535534   0.4714045), wk =   0.0034722
        k(  326) = (   0.5303301   0.1178511   0.0000000), wk =   0.0034722
        k(  327) = (  -0.1473139  -0.5597929   0.6776440), wk =   0.0069444
        k(  328) = (  -0.1178511  -0.5303301   0.6481812), wk =   0.0069444
        k(  329) = (  -0.0883883  -0.5008673   0.6187184), wk =   0.0069444
        k(  330) = (  -0.0589256  -0.4714045   0.5892557), wk =   0.0069444
        k(  331) = (  -0.0294628  -0.4419417   0.5597929), wk =   0.0069444
        k(  332) = (   0.0000000  -0.4124790   0.5303301), wk =   0.0034722
        k(  333) = (  -0.1178511  -0.5892557   0.7071068), wk =   0.0034722
        k(  334) = (  -0.0883883  -0.5597929   0.6776440), wk =   0.0069444
        k(  335) = (  -0.0589256  -0.5303301   0.6481812), wk =   0.0069444
        k(  336) = (  -0.0294628  -0.5008673   0.6187184), wk =   0.0069444
        k(  337) = (  -0.0000000  -0.4714045   0.5892557), wk =   0.0034722
        k(  338) = (  -0.0589256  -0.5892557   0.7071068), wk =   0.0034722
        k(  339) = (  -0.0294628  -0.5597929   0.6776440), wk =   0.0069444
        k(  340) = (  -0.0000000  -0.5303301   0.6481812), wk =   0.0034722
        k(  341) = (  -0.7071068   0.1178511   0.0000000), wk =   0.0017361
        k(  342) = (   0.3535534   0.1767767   0.0000000), wk =   0.0034722
        k(  343) = (   0.3830162   0.2062395  -0.0294628), wk =   0.0069444
        k(  344) = (   0.4124790   0.2357023  -0.0589256), wk =   0.0069444
        k(  345) = (  -0.2651650  -0.4419417   0.6187184), wk =   0.0069444
        k(  346) = (  -0.2357023  -0.4124790   0.5892557), wk =   0.0069444
        k(  347) = (  -0.2062395  -0.3830162   0.5597929), wk =   0.0069444
        k(  348) = (  -0.1767767  -0.3535534   0.5303301), wk =   0.0034722
        k(  349) = (   0.4124790   0.1767767   0.0000000), wk =   0.0034722
        k(  350) = (   0.4419417   0.2062395  -0.0294628), wk =   0.0069444
        k(  351) = (  -0.2357023  -0.4714045   0.6481812), wk =   0.0069444
        k(  352) = (  -0.2062395  -0.4419417   0.6187184), wk =   0.0069444
        k(  353) = (  -0.1767767  -0.4124790   0.5892557), wk =   0.0069444
        k(  354) = (  -0.1473139  -0.3830162   0.5597929), wk =   0.0069444
        k(  355) = (  -0.1178511  -0.3535534   0.5303301), wk =   0.0069444
        k(  356) = (  -0.0883883  -0.3240906   0.5008673), wk =   0.0069444
        k(  357) = (  -0.0589256  -0.2946278   0.4714045), wk =   0.0069444
        k(  358) = (  -0.0294628  -0.2651650   0.4419417), wk =   0.0069444
        k(  359) = (   0.0000000  -0.2357023   0.4124790), wk =   0.0034722
        k(  360) = (   0.4714045   0.1767767   0.0000000), wk =   0.0034722
        k(  361) = (  -0.2062395  -0.5008673   0.6776440), wk =   0.0069444
        k(  362) = (  -0.1767767  -0.4714045   0.6481812), wk =   0.0069444
        k(  363) = (  -0.1473139  -0.4419417   0.6187184), wk =   0.0069444
        k(  364) = (  -0.1178511  -0.4124790   0.5892557), wk =   0.0069444
        k(  365) = (  -0.0883883  -0.3830162   0.5597929), wk =   0.0069444
        k(  366) = (  -0.0589256  -0.3535534   0.5303301), wk =   0.0069444
        k(  367) = (  -0.0294628  -0.3240906   0.5008673), wk =   0.0069444
        k(  368) = (  -0.0000000  -0.2946278   0.4714045), wk =   0.0034722
        k(  369) = (  -0.1767767  -0.5303301   0.7071068), wk =   0.0034722
        k(  370) = (  -0.1473139  -0.5008673   0.6776440), wk =   0.0069444
        k(  371) = (  -0.1178511  -0.4714045   0.6481812), wk =   0.0069444
        k(  372) = (  -0.0883883  -0.4419417   0.6187184), wk =   0.0069444
        k(  373) = (  -0.0589256  -0.4124790   0.5892557), wk =   0.0069444
        k(  374) = (  -0.0294628  -0.3830162   0.5597929), wk =   0.0069444
        k(  375) = (   0.0000000  -0.3535534   0.5303301), wk =   0.0034722
        k(  376) = (  -0.1178511  -0.5303301   0.7071068), wk =   0.0034722
        k(  377) = (  -0.0883883  -0.5008673   0.6776440), wk =   0.0069444
        k(  378) = (  -0.0589256  -0.4714045   0.6481812), wk =   0.0069444
        k(  379) = (  -0.0294628  -0.4419417   0.6187184), wk =   0.0069444
        k(  380) = (   0.0000000  -0.4124790   0.5892557), wk =   0.0034722
        k(  381) = (  -0.0589256  -0.5303301   0.7071068), wk =   0.0034722
        k(  382) = (  -0.0294628  -0.5008673   0.6776440), wk =   0.0069444
        k(  383) = (  -0.0000000  -0.4714045   0.6481812), wk =   0.0034722
        k(  384) = (  -0.7071068   0.1767767   0.0000000), wk =   0.0017361
        k(  385) = (  -0.2357023  -0.4714045   0.7071068), wk =   0.0034722
        k(  386) = (  -0.2062395  -0.4419417   0.6776440), wk =   0.0069444
        k(  387) = (  -0.1767767  -0.4124790   0.6481812), wk =   0.0069444
        k(  388) = (  -0.1473139  -0.3830162   0.6187184), wk =   0.0069444
        k(  389) = (  -0.1178511  -0.3535534   0.5892557), wk =   0.0034722
        k(  390) = (  -0.1767767  -0.4714045   0.7071068), wk =   0.0034722
        k(  391) = (  -0.1473139  -0.4419417   0.6776440), wk =   0.0069444
        k(  392) = (  -0.1178511  -0.4124790   0.6481812), wk =   0.0069444
        k(  393) = (  -0.0883883  -0.3830162   0.6187184), wk =   0.0069444
        k(  394) = (  -0.0589256  -0.3535534   0.5892557), wk =   0.0069444
        k(  395) = (  -0.0294628  -0.3240906   0.5597929), wk =   0.0069444
        k(  396) = (   0.0000000  -0.2946278   0.5303301), wk =   0.0034722
        k(  397) = (  -0.1178511  -0.4714045   0.7071068), wk =   0.0034722
        k(  398) = (  -0.0883883  -0.4419417   0.6776440), wk =   0.0069444
        k(  399) = (  -0.0589256  -0.4124790   0.6481812), wk =   0.0069444
        k(  400) = (  -0.0294628  -0.3830162   0.6187184), wk =   0.0069444
        k(  401) = (   0.0000000  -0.3535534   0.5892557), wk =   0.0034722
        k(  402) = (  -0.0589256  -0.4714045   0.7071068), wk =   0.0034722
        k(  403) = (  -0.0294628  -0.4419417   0.6776440), wk =   0.0069444
        k(  404) = (   0.0000000  -0.4124790   0.6481812), wk =   0.0034722
        k(  405) = (  -0.7071068   0.2357023   0.0000000), wk =   0.0017361
        k(  406) = (  -0.1178511  -0.4124790   0.7071068), wk =   0.0034722
        k(  407) = (  -0.0883883  -0.3830162   0.6776440), wk =   0.0069444
        k(  408) = (  -0.0589256  -0.3535534   0.6481812), wk =   0.0034722
        k(  409) = (  -0.0589256  -0.4124790   0.7071068), wk =   0.0034722
        k(  410) = (  -0.0294628  -0.3830162   0.6776440), wk =   0.0069444
        k(  411) = (  -0.0000000  -0.3535534   0.6481812), wk =   0.0034722
        k(  412) = (  -0.7071068   0.2946278  -0.0000000), wk =   0.0017361
        k(  413) = (  -0.7071068   0.3535534   0.0000000), wk =   0.0008681

                       cryst. coord.
        k(    1) = (   0.0000000   0.0000000   0.0000000), wk =   0.0001447
        k(    2) = (   0.0000000   0.0000000   0.0416667), wk =   0.0011574
        k(    3) = (   0.0000000   0.0000000   0.0833333), wk =   0.0011574
        k(    4) = (   0.0000000   0.0000000   0.1250000), wk =   0.0011574
        k(    5) = (   0.0000000   0.0000000   0.1666667), wk =   0.0011574
        k(    6) = (   0.0000000   0.0000000   0.2083333), wk =   0.0011574
        k(    7) = (   0.0000000   0.0000000   0.2500000), wk =   0.0011574
        k(    8) = (   0.0000000   0.0000000   0.2916667), wk =   0.0011574
        k(    9) = (   0.0000000   0.0000000   0.3333333), wk =   0.0011574
        k(   10) = (   0.0000000   0.0000000   0.3750000), wk =   0.0011574
        k(   11) = (   0.0000000   0.0000000   0.4166667), wk =   0.0011574
        k(   12) = (   0.0000000   0.0000000   0.4583333), wk =   0.0011574
        k(   13) = (   0.0000000   0.0000000  -0.5000000), wk =   0.0005787
        k(   14) = (   0.0000000   0.0416667   0.0416667), wk =   0.0008681
        k(   15) = (   0.0000000   0.0416667   0.0833333), wk =   0.0034722
        k(   16) = (   0.0000000   0.0416667   0.1250000), wk =   0.0034722
        k(   17) = (   0.0000000   0.0416667   0.1666667), wk =   0.0034722
        k(   18) = (   0.0000000   0.0416667   0.2083333), wk =   0.0034722
        k(   19) = (   0.0000000   0.0416667   0.2500000), wk =   0.0034722
        k(   20) = (   0.0000000   0.0416667   0.2916667), wk =   0.0034722
        k(   21) = (   0.0000000   0.0416667   0.3333333), wk =   0.0034722
        k(   22) = (   0.0000000   0.0416667   0.3750000), wk =   0.0034722
        k(   23) = (   0.0000000   0.0416667   0.4166667), wk =   0.0034722
        k(   24) = (   0.0000000   0.0416667   0.4583333), wk =   0.0034722
        k(   25) = (   0.0000000   0.0416667  -0.5000000), wk =   0.0034722
        k(   26) = (   0.0000000   0.0416667  -0.4583333), wk =   0.0034722
        k(   27) = (   0.0000000   0.0416667  -0.4166667), wk =   0.0034722
        k(   28) = (   0.0000000   0.0416667  -0.3750000), wk =   0.0034722
        k(   29) = (   0.0000000   0.0416667  -0.3333333), wk =   0.0034722
        k(   30) = (   0.0000000   0.0416667  -0.2916667), wk =   0.0034722
        k(   31) = (   0.0000000   0.0416667  -0.2500000), wk =   0.0034722
        k(   32) = (   0.0000000   0.0416667  -0.2083333), wk =   0.0034722
        k(   33) = (   0.0000000   0.0416667  -0.1666667), wk =   0.0034722
        k(   34) = (   0.0000000   0.0416667  -0.1250000), wk =   0.0034722
        k(   35) = (   0.0000000   0.0416667  -0.0833333), wk =   0.0034722
        k(   36) = (   0.0000000   0.0416667  -0.0416667), wk =   0.0017361
        k(   37) = (   0.0000000   0.0833333   0.0833333), wk =   0.0008681
        k(   38) = (   0.0000000   0.0833333   0.1250000), wk =   0.0034722
        k(   39) = (   0.0000000   0.0833333   0.1666667), wk =   0.0034722
        k(   40) = (   0.0000000   0.0833333   0.2083333), wk =   0.0034722
        k(   41) = (   0.0000000   0.0833333   0.2500000), wk =   0.0034722
        k(   42) = (   0.0000000   0.0833333   0.2916667), wk =   0.0034722
        k(   43) = (   0.0000000   0.0833333   0.3333333), wk =   0.0034722
        k(   44) = (   0.0000000   0.0833333   0.3750000), wk =   0.0034722
        k(   45) = (   0.0000000   0.0833333   0.4166667), wk =   0.0034722
        k(   46) = (   0.0000000   0.0833333   0.4583333), wk =   0.0034722
        k(   47) = (   0.0000000   0.0833333  -0.5000000), wk =   0.0034722
        k(   48) = (   0.0000000   0.0833333  -0.4583333), wk =   0.0034722
        k(   49) = (   0.0000000   0.0833333  -0.4166667), wk =   0.0034722
        k(   50) = (   0.0000000   0.0833333  -0.3750000), wk =   0.0034722
        k(   51) = (   0.0000000   0.0833333  -0.3333333), wk =   0.0034722
        k(   52) = (   0.0000000   0.0833333  -0.2916667), wk =   0.0034722
        k(   53) = (   0.0000000   0.0833333  -0.2500000), wk =   0.0034722
        k(   54) = (   0.0000000   0.0833333  -0.2083333), wk =   0.0034722
        k(   55) = (   0.0000000   0.0833333  -0.1666667), wk =   0.0034722
        k(   56) = (   0.0000000   0.0833333  -0.1250000), wk =   0.0034722
        k(   57) = (   0.0000000   0.0833333  -0.0833333), wk =   0.0017361
        k(   58) = (   0.0000000   0.1250000   0.1250000), wk =   0.0008681
        k(   59) = (   0.0000000   0.1250000   0.1666667), wk =   0.0034722
        k(   60) = (   0.0000000   0.1250000   0.2083333), wk =   0.0034722
        k(   61) = (   0.0000000   0.1250000   0.2500000), wk =   0.0034722
        k(   62) = (   0.0000000   0.1250000   0.2916667), wk =   0.0034722
        k(   63) = (   0.0000000   0.1250000   0.3333333), wk =   0.0034722
        k(   64) = (   0.0000000   0.1250000   0.3750000), wk =   0.0034722
        k(   65) = (   0.0000000   0.1250000   0.4166667), wk =   0.0034722
        k(   66) = (   0.0000000   0.1250000   0.4583333), wk =   0.0034722
        k(   67) = (   0.0000000   0.1250000  -0.5000000), wk =   0.0034722
        k(   68) = (   0.0000000   0.1250000  -0.4583333), wk =   0.0034722
        k(   69) = (   0.0000000   0.1250000  -0.4166667), wk =   0.0034722
        k(   70) = (   0.0000000   0.1250000  -0.3750000), wk =   0.0034722
        k(   71) = (   0.0000000   0.1250000  -0.3333333), wk =   0.0034722
        k(   72) = (   0.0000000   0.1250000  -0.2916667), wk =   0.0034722
        k(   73) = (   0.0000000   0.1250000  -0.2500000), wk =   0.0034722
        k(   74) = (   0.0000000   0.1250000  -0.2083333), wk =   0.0034722
        k(   75) = (   0.0000000   0.1250000  -0.1666667), wk =   0.0034722
        k(   76) = (   0.0000000   0.1250000  -0.1250000), wk =   0.0017361
        k(   77) = (   0.0000000   0.1666667   0.1666667), wk =   0.0008681
        k(   78) = (   0.0000000   0.1666667   0.2083333), wk =   0.0034722
        k(   79) = (   0.0000000   0.1666667   0.2500000), wk =   0.0034722
        k(   80) = (   0.0000000   0.1666667   0.2916667), wk =   0.0034722
        k(   81) = (   0.0000000   0.1666667   0.3333333), wk =   0.0034722
        k(   82) = (   0.0000000   0.1666667   0.3750000), wk =   0.0034722
        k(   83) = (   0.0000000   0.1666667   0.4166667), wk =   0.0034722
        k(   84) = (   0.0000000   0.1666667   0.4583333), wk =   0.0034722
        k(   85) = (   0.0000000   0.1666667  -0.5000000), wk =   0.0034722
        k(   86) = (   0.0000000   0.1666667  -0.4583333), wk =   0.0034722
        k(   87) = (   0.0000000   0.1666667  -0.4166667), wk =   0.0034722
        k(   88) = (   0.0000000   0.1666667  -0.3750000), wk =   0.0034722
        k(   89) = (   0.0000000   0.1666667  -0.3333333), wk =   0.0034722
        k(   90) = (   0.0000000   0.1666667  -0.2916667), wk =   0.0034722
        k(   91) = (   0.0000000   0.1666667  -0.2500000), wk =   0.0034722
        k(   92) = (   0.0000000   0.1666667  -0.2083333), wk =   0.0034722
        k(   93) = (   0.0000000   0.1666667  -0.1666667), wk =   0.0017361
        k(   94) = (   0.0000000   0.2083333   0.2083333), wk =   0.0008681
        k(   95) = (   0.0000000   0.2083333   0.2500000), wk =   0.0034722
        k(   96) = (   0.0000000   0.2083333   0.2916667), wk =   0.0034722
        k(   97) = (   0.0000000   0.2083333   0.3333333), wk =   0.0034722
        k(   98) = (   0.0000000   0.2083333   0.3750000), wk =   0.0034722
        k(   99) = (   0.0000000   0.2083333   0.4166667), wk =   0.0034722
        k(  100) = (   0.0000000   0.2083333   0.4583333), wk =   0.0034722
        k(  101) = (   0.0000000   0.2083333  -0.5000000), wk =   0.0034722
        k(  102) = (   0.0000000   0.2083333  -0.4583333), wk =   0.0034722
        k(  103) = (   0.0000000   0.2083333  -0.4166667), wk =   0.0034722
        k(  104) = (   0.0000000   0.2083333  -0.3750000), wk =   0.0034722
        k(  105) = (   0.0000000   0.2083333  -0.3333333), wk =   0.0034722
        k(  106) = (   0.0000000   0.2083333  -0.2916667), wk =   0.0034722
        k(  107) = (   0.0000000   0.2083333  -0.2500000), wk =   0.0034722
        k(  108) = (   0.0000000   0.2083333  -0.2083333), wk =   0.0017361
        k(  109) = (   0.0000000   0.2500000   0.2500000), wk =   0.0008681
        k(  110) = (   0.0000000   0.2500000   0.2916667), wk =   0.0034722
        k(  111) = (   0.0000000   0.2500000   0.3333333), wk =   0.0034722
        k(  112) = (   0.0000000   0.2500000   0.3750000), wk =   0.0034722
        k(  113) = (   0.0000000   0.2500000   0.4166667), wk =   0.0034722
        k(  114) = (   0.0000000   0.2500000   0.4583333), wk =   0.0034722
        k(  115) = (   0.0000000   0.2500000  -0.5000000), wk =   0.0034722
        k(  116) = (   0.0000000   0.2500000  -0.4583333), wk =   0.0034722
        k(  117) = (   0.0000000   0.2500000  -0.4166667), wk =   0.0034722
        k(  118) = (   0.0000000   0.2500000  -0.3750000), wk =   0.0034722
        k(  119) = (   0.0000000   0.2500000  -0.3333333), wk =   0.0034722
        k(  120) = (   0.0000000   0.2500000  -0.2916667), wk =   0.0034722
        k(  121) = (   0.0000000   0.2500000  -0.2500000), wk =   0.0017361
        k(  122) = (   0.0000000   0.2916667   0.2916667), wk =   0.0008681
        k(  123) = (   0.0000000   0.2916667   0.3333333), wk =   0.0034722
        k(  124) = (   0.0000000   0.2916667   0.3750000), wk =   0.0034722
        k(  125) = (   0.0000000   0.2916667   0.4166667), wk =   0.0034722
        k(  126) = (   0.0000000   0.2916667   0.4583333), wk =   0.0034722
        k(  127) = (   0.0000000   0.2916667  -0.5000000), wk =   0.0034722
        k(  128) = (   0.0000000   0.2916667  -0.4583333), wk =   0.0034722
        k(  129) = (   0.0000000   0.2916667  -0.4166667), wk =   0.0034722
        k(  130) = (   0.0000000   0.2916667  -0.3750000), wk =   0.0034722
        k(  131) = (   0.0000000   0.2916667  -0.3333333), wk =   0.0034722
        k(  132) = (   0.0000000   0.2916667  -0.2916667), wk =   0.0017361
        k(  133) = (   0.0000000   0.3333333   0.3333333), wk =   0.0008681
        k(  134) = (   0.0000000   0.3333333   0.3750000), wk =   0.0034722
        k(  135) = (   0.0000000   0.3333333   0.4166667), wk =   0.0034722
        k(  136) = (   0.0000000   0.3333333   0.4583333), wk =   0.0034722
        k(  137) = (   0.0000000   0.3333333  -0.5000000), wk =   0.0034722
        k(  138) = (   0.0000000   0.3333333  -0.4583333), wk =   0.0034722
        k(  139) = (   0.0000000   0.3333333  -0.4166667), wk =   0.0034722
        k(  140) = (   0.0000000   0.3333333  -0.3750000), wk =   0.0034722
        k(  141) = (   0.0000000   0.3333333  -0.3333333), wk =   0.0017361
        k(  142) = (   0.0000000   0.3750000   0.3750000), wk =   0.0008681
        k(  143) = (   0.0000000   0.3750000   0.4166667), wk =   0.0034722
        k(  144) = (   0.0000000   0.3750000   0.4583333), wk =   0.0034722
        k(  145) = (   0.0000000   0.3750000  -0.5000000), wk =   0.0034722
        k(  146) = (   0.0000000   0.3750000  -0.4583333), wk =   0.0034722
        k(  147) = (   0.0000000   0.3750000  -0.4166667), wk =   0.0034722
        k(  148) = (   0.0000000   0.3750000  -0.3750000), wk =   0.0017361
        k(  149) = (   0.0000000   0.4166667   0.4166667), wk =   0.0008681
        k(  150) = (   0.0000000   0.4166667   0.4583333), wk =   0.0034722
        k(  151) = (   0.0000000   0.4166667  -0.5000000), wk =   0.0034722
        k(  152) = (   0.0000000   0.4166667  -0.4583333), wk =   0.0034722
        k(  153) = (   0.0000000   0.4166667  -0.4166667), wk =   0.0017361
        k(  154) = (   0.0000000   0.4583333   0.4583333), wk =   0.0008681
        k(  155) = (   0.0000000   0.4583333  -0.5000000), wk =   0.0034722
        k(  156) = (   0.0000000   0.4583333  -0.4583333), wk =   0.0017361
        k(  157) = (   0.0000000  -0.5000000  -0.5000000), wk =   0.0004340
        k(  158) = (   0.0416667   0.0833333   0.1250000), wk =   0.0034722
        k(  159) = (   0.0416667   0.0833333   0.1666667), wk =   0.0069444
        k(  160) = (   0.0416667   0.0833333   0.2083333), wk =   0.0069444
        k(  161) = (   0.0416667   0.0833333   0.2500000), wk =   0.0069444
        k(  162) = (   0.0416667   0.0833333   0.2916667), wk =   0.0069444
        k(  163) = (   0.0416667   0.0833333   0.3333333), wk =   0.0069444
        k(  164) = (   0.0416667   0.0833333   0.3750000), wk =   0.0069444
        k(  165) = (   0.0416667   0.0833333   0.4166667), wk =   0.0069444
        k(  166) = (   0.0416667   0.0833333   0.4583333), wk =   0.0069444
        k(  167) = (   0.0416667   0.0833333  -0.5000000), wk =   0.0069444
        k(  168) = (   0.0416667   0.0833333  -0.4583333), wk =   0.0034722
        k(  169) = (   0.0416667   0.1250000   0.1666667), wk =   0.0034722
        k(  170) = (   0.0416667   0.1250000   0.2083333), wk =   0.0069444
        k(  171) = (   0.0416667   0.1250000   0.2500000), wk =   0.0069444
        k(  172) = (   0.0416667   0.1250000   0.2916667), wk =   0.0069444
        k(  173) = (   0.0416667   0.1250000   0.3333333), wk =   0.0069444
        k(  174) = (   0.0416667   0.1250000   0.3750000), wk =   0.0069444
        k(  175) = (   0.0416667   0.1250000   0.4166667), wk =   0.0069444
        k(  176) = (   0.0416667   0.1250000   0.4583333), wk =   0.0069444
        k(  177) = (   0.0416667   0.1250000  -0.5000000), wk =   0.0069444
        k(  178) = (   0.0416667   0.1250000  -0.4583333), wk =   0.0069444
        k(  179) = (   0.0416667   0.1250000  -0.4166667), wk =   0.0069444
        k(  180) = (   0.0416667   0.1250000  -0.3750000), wk =   0.0069444
        k(  181) = (   0.0416667   0.1250000  -0.3333333), wk =   0.0069444
        k(  182) = (   0.0416667   0.1250000  -0.2916667), wk =   0.0069444
        k(  183) = (   0.0416667   0.1250000  -0.2500000), wk =   0.0069444
        k(  184) = (   0.0416667   0.1250000  -0.2083333), wk =   0.0069444
        k(  185) = (   0.0416667   0.1250000  -0.1666667), wk =   0.0069444
        k(  186) = (   0.0416667   0.1250000  -0.1250000), wk =   0.0069444
        k(  187) = (   0.0416667   0.1250000  -0.0833333), wk =   0.0034722
        k(  188) = (   0.0416667   0.1666667   0.2083333), wk =   0.0034722
        k(  189) = (   0.0416667   0.1666667   0.2500000), wk =   0.0069444
        k(  190) = (   0.0416667   0.1666667   0.2916667), wk =   0.0069444
        k(  191) = (   0.0416667   0.1666667   0.3333333), wk =   0.0069444
        k(  192) = (   0.0416667   0.1666667   0.3750000), wk =   0.0069444
        k(  193) = (   0.0416667   0.1666667   0.4166667), wk =   0.0069444
        k(  194) = (   0.0416667   0.1666667   0.4583333), wk =   0.0069444
        k(  195) = (   0.0416667   0.1666667  -0.5000000), wk =   0.0069444
        k(  196) = (   0.0416667   0.1666667  -0.4583333), wk =   0.0069444
        k(  197) = (   0.0416667   0.1666667  -0.4166667), wk =   0.0069444
        k(  198) = (   0.0416667   0.1666667  -0.3750000), wk =   0.0069444
        k(  199) = (   0.0416667   0.1666667  -0.3333333), wk =   0.0069444
        k(  200) = (   0.0416667   0.1666667  -0.2916667), wk =   0.0069444
        k(  201) = (   0.0416667   0.1666667  -0.2500000), wk =   0.0069444
        k(  202) = (   0.0416667   0.1666667  -0.2083333), wk =   0.0069444
        k(  203) = (   0.0416667   0.1666667  -0.1666667), wk =   0.0069444
        k(  204) = (   0.0416667   0.1666667  -0.1250000), wk =   0.0034722
        k(  205) = (   0.0416667   0.2083333   0.2500000), wk =   0.0034722
        k(  206) = (   0.0416667   0.2083333   0.2916667), wk =   0.0069444
        k(  207) = (   0.0416667   0.2083333   0.3333333), wk =   0.0069444
        k(  208) = (   0.0416667   0.2083333   0.3750000), wk =   0.0069444
        k(  209) = (   0.0416667   0.2083333   0.4166667), wk =   0.0069444
        k(  210) = (   0.0416667   0.2083333   0.4583333), wk =   0.0069444
        k(  211) = (   0.0416667   0.2083333  -0.5000000), wk =   0.0069444
        k(  212) = (   0.0416667   0.2083333  -0.4583333), wk =   0.0069444
        k(  213) = (   0.0416667   0.2083333  -0.4166667), wk =   0.0069444
        k(  214) = (   0.0416667   0.2083333  -0.3750000), wk =   0.0069444
        k(  215) = (   0.0416667   0.2083333  -0.3333333), wk =   0.0069444
        k(  216) = (   0.0416667   0.2083333  -0.2916667), wk =   0.0069444
        k(  217) = (   0.0416667   0.2083333  -0.2500000), wk =   0.0069444
        k(  218) = (   0.0416667   0.2083333  -0.2083333), wk =   0.0069444
        k(  219) = (   0.0416667   0.2083333  -0.1666667), wk =   0.0034722
        k(  220) = (   0.0416667   0.2500000   0.2916667), wk =   0.0034722
        k(  221) = (   0.0416667   0.2500000   0.3333333), wk =   0.0069444
        k(  222) = (   0.0416667   0.2500000   0.3750000), wk =   0.0069444
        k(  223) = (   0.0416667   0.2500000   0.4166667), wk =   0.0069444
        k(  224) = (   0.0416667   0.2500000   0.4583333), wk =   0.0069444
        k(  225) = (   0.0416667   0.2500000  -0.5000000), wk =   0.0069444
        k(  226) = (   0.0416667   0.2500000  -0.4583333), wk =   0.0069444
        k(  227) = (   0.0416667   0.2500000  -0.4166667), wk =   0.0069444
        k(  228) = (   0.0416667   0.2500000  -0.3750000), wk =   0.0069444
        k(  229) = (   0.0416667   0.2500000  -0.3333333), wk =   0.0069444
        k(  230) = (   0.0416667   0.2500000  -0.2916667), wk =   0.0069444
        k(  231) = (   0.0416667   0.2500000  -0.2500000), wk =   0.0069444
        k(  232) = (   0.0416667   0.2500000  -0.2083333), wk =   0.0034722
        k(  233) = (   0.0416667   0.2916667   0.3333333), wk =   0.0034722
        k(  234) = (   0.0416667   0.2916667   0.3750000), wk =   0.0069444
        k(  235) = (   0.0416667   0.2916667   0.4166667), wk =   0.0069444
        k(  236) = (   0.0416667   0.2916667   0.4583333), wk =   0.0069444
        k(  237) = (   0.0416667   0.2916667  -0.5000000), wk =   0.0069444
        k(  238) = (   0.0416667   0.2916667  -0.4583333), wk =   0.0069444
        k(  239) = (   0.0416667   0.2916667  -0.4166667), wk =   0.0069444
        k(  240) = (   0.0416667   0.2916667  -0.3750000), wk =   0.0069444
        k(  241) = (   0.0416667   0.2916667  -0.3333333), wk =   0.0069444
        k(  242) = (   0.0416667   0.2916667  -0.2916667), wk =   0.0069444
        k(  243) = (   0.0416667   0.2916667  -0.2500000), wk =   0.0034722
        k(  244) = (   0.0416667   0.3333333   0.3750000), wk =   0.0034722
        k(  245) = (   0.0416667   0.3333333   0.4166667), wk =   0.0069444
        k(  246) = (   0.0416667   0.3333333   0.4583333), wk =   0.0069444
        k(  247) = (   0.0416667   0.3333333  -0.5000000), wk =   0.0069444
        k(  248) = (   0.0416667   0.3333333  -0.4583333), wk =   0.0069444
        k(  249) = (   0.0416667   0.3333333  -0.4166667), wk =   0.0069444
        k(  250) = (   0.0416667   0.3333333  -0.3750000), wk =   0.0069444
        k(  251) = (   0.0416667   0.3333333  -0.3333333), wk =   0.0069444
        k(  252) = (   0.0416667   0.3333333  -0.2916667), wk =   0.0034722
        k(  253) = (   0.0416667   0.3750000   0.4166667), wk =   0.0034722
        k(  254) = (   0.0416667   0.3750000   0.4583333), wk =   0.0069444
        k(  255) = (   0.0416667   0.3750000  -0.5000000), wk =   0.0069444
        k(  256) = (   0.0416667   0.3750000  -0.4583333), wk =   0.0069444
        k(  257) = (   0.0416667   0.3750000  -0.4166667), wk =   0.0069444
        k(  258) = (   0.0416667   0.3750000  -0.3750000), wk =   0.0069444
        k(  259) = (   0.0416667   0.3750000  -0.3333333), wk =   0.0034722
        k(  260) = (   0.0416667   0.4166667   0.4583333), wk =   0.0034722
        k(  261) = (   0.0416667   0.4166667  -0.5000000), wk =   0.0069444
        k(  262) = (   0.0416667   0.4166667  -0.4583333), wk =   0.0069444
        k(  263) = (   0.0416667   0.4166667  -0.4166667), wk =   0.0069444
        k(  264) = (   0.0416667   0.4166667  -0.3750000), wk =   0.0034722
        k(  265) = (   0.0416667   0.4583333  -0.5000000), wk =   0.0034722
        k(  266) = (   0.0416667   0.4583333  -0.4583333), wk =   0.0069444
        k(  267) = (   0.0416667   0.4583333  -0.4166667), wk =   0.0034722
        k(  268) = (   0.0416667  -0.5000000  -0.4583333), wk =   0.0017361
        k(  269) = (   0.0833333   0.1666667   0.2500000), wk =   0.0034722
        k(  270) = (   0.0833333   0.1666667   0.2916667), wk =   0.0069444
        k(  271) = (   0.0833333   0.1666667   0.3333333), wk =   0.0069444
        k(  272) = (   0.0833333   0.1666667   0.3750000), wk =   0.0069444
        k(  273) = (   0.0833333   0.1666667   0.4166667), wk =   0.0069444
        k(  274) = (   0.0833333   0.1666667   0.4583333), wk =   0.0069444
        k(  275) = (   0.0833333   0.1666667  -0.5000000), wk =   0.0069444
        k(  276) = (   0.0833333   0.1666667  -0.4583333), wk =   0.0069444
        k(  277) = (   0.0833333   0.1666667  -0.4166667), wk =   0.0034722
        k(  278) = (   0.0833333   0.2083333   0.2916667), wk =   0.0034722
        k(  279) = (   0.0833333   0.2083333   0.3333333), wk =   0.0069444
        k(  280) = (   0.0833333   0.2083333   0.3750000), wk =   0.0069444
        k(  281) = (   0.0833333   0.2083333   0.4166667), wk =   0.0069444
        k(  282) = (   0.0833333   0.2083333   0.4583333), wk =   0.0069444
        k(  283) = (   0.0833333   0.2083333  -0.5000000), wk =   0.0069444
        k(  284) = (   0.0833333   0.2083333  -0.4583333), wk =   0.0069444
        k(  285) = (   0.0833333   0.2083333  -0.4166667), wk =   0.0069444
        k(  286) = (   0.0833333   0.2083333  -0.3750000), wk =   0.0069444
        k(  287) = (   0.0833333   0.2083333  -0.3333333), wk =   0.0069444
        k(  288) = (   0.0833333   0.2083333  -0.2916667), wk =   0.0069444
        k(  289) = (   0.0833333   0.2083333  -0.2500000), wk =   0.0069444
        k(  290) = (   0.0833333   0.2083333  -0.2083333), wk =   0.0069444
        k(  291) = (   0.0833333   0.2083333  -0.1666667), wk =   0.0069444
        k(  292) = (   0.0833333   0.2083333  -0.1250000), wk =   0.0034722
        k(  293) = (   0.0833333   0.2500000   0.3333333), wk =   0.0034722
        k(  294) = (   0.0833333   0.2500000   0.3750000), wk =   0.0069444
        k(  295) = (   0.0833333   0.2500000   0.4166667), wk =   0.0069444
[...]
     1.0000   1.0000   0.0000   0.0000   0.0000   0.0000   0.0000

          k =-0.0295-0.4419 0.6776 (  2219 PWs)   bands (ev):

   -12.1020  -0.6063   0.6522   1.4800   8.0823  10.5385  13.3016  14.0843
    18.4751  20.1613  23.0363  23.4003  23.5789  23.7377  24.3899

     occupation numbers 
     1.0000   1.0000   1.0000   1.0000   1.0000   1.0000   1.0000   1.0000
     1.0000   1.0000   0.0000   0.0000   0.0000   0.0000   0.0000

          k = 0.0000-0.4125 0.6482 (  2223 PWs)   bands (ev):

   -12.1030  -0.3592   0.1572   1.6270   8.3650  11.1207  13.0482  13.5258
    18.5221  19.8150  22.8191  23.4059  23.6289  23.7522  24.3463

     occupation numbers 
     1.0000   1.0000   1.0000   1.0000   1.0000   1.0000   1.0000   1.0000
     1.0000   1.0000   0.0002   0.0000   0.0000   0.0000   0.0000

          k =-0.7071 0.2357 0.0000 (  2224 PWs)   bands (ev):

   -12.0968  -0.7585   1.0731   1.3676   7.6637   9.9631  13.9729  14.3710
    18.3751  20.5848  23.3319  23.3746  23.4862  23.7111  24.4498

     occupation numbers 
     1.0000   1.0000   1.0000   1.0000   1.0000   1.0000   1.0000   1.0000
     1.0000   1.0000   0.0000   0.0000   0.0000   0.0000   0.0000

          k =-0.1179-0.4125 0.7071 (  2228 PWs)   bands (ev):

   -12.1747  -0.7671   0.6800   1.9655   8.6260  11.0550  11.8534  14.5659
    18.4849  19.2233  22.2443  23.2294  23.7814  23.8104  24.3253

     occupation numbers 
     1.0000   1.0000   1.0000   1.0000   1.0000   1.0000   1.0000   1.0000
     1.0000   1.0000   0.2727   0.0000   0.0000   0.0000   0.0000

          k =-0.0884-0.3830 0.6776 (  2224 PWs)   bands (ev):

   -12.1350  -0.5600   0.3708   1.7431   8.7732  11.4132  11.9998  13.9224
    18.7660  19.1284  22.4825  23.3220  23.7233  23.7974  24.3137

     occupation numbers 
     1.0000   1.0000   1.0000   1.0000   1.0000   1.0000   1.0000   1.0000
     1.0000   1.0000   0.0327   0.0000   0.0000   0.0000   0.0000

          k =-0.0589-0.3536 0.6482 (  2230 PWs)   bands (ev):

   -12.1213  -0.4390   0.2146   1.6681   8.8187  11.4662  12.2906  13.5278
    18.8520  19.1151  22.5580  23.3947  23.6708  23.7934  24.3098

     occupation numbers 
     1.0000   1.0000   1.0000   1.0000   1.0000   1.0000   1.0000   1.0000
     1.0000   1.0000   0.0127   0.0000   0.0000   0.0000   0.0000

          k =-0.0589-0.4125 0.7071 (  2222 PWs)   bands (ev):

   -12.1128  -0.5290   0.5655   1.4060   8.5420  11.0213  12.4990  13.9602
    18.6976  19.6865  22.9133  23.3038  23.6515  23.7630  24.3480

     occupation numbers 
     1.0000   1.0000   1.0000   1.0000   1.0000   1.0000   1.0000   1.0000
     1.0000   1.0000   0.0000   0.0000   0.0000   0.0000   0.0000

          k =-0.0295-0.3830 0.6776 (  2225 PWs)   bands (ev):

   -12.0984  -0.2515   0.2154   1.3022   8.7681  11.5170  12.4291  13.2988
    18.9292  19.4946  23.0093  23.3815  23.5577  23.7570  24.3288

     occupation numbers 
     1.0000   1.0000   1.0000   1.0000   1.0000   1.0000   1.0000   1.0000
     1.0000   1.0000   0.0000   0.0000   0.0000   0.0000   0.0000

          k = 0.0000-0.3536 0.6482 (  2225 PWs)   bands (ev):

   -12.1060  -0.2031   0.0713   1.4358   8.8508  11.8088  12.0600  13.3255
    19.0476  19.2031  22.8464  23.3475  23.6341  23.7682  24.3168

     occupation numbers 
     1.0000   1.0000   1.0000   1.0000   1.0000   1.0000   1.0000   1.0000
     1.0000   1.0000   0.0001   0.0000   0.0000   0.0000   0.0000

          k =-0.7071 0.2946 0.0000 (  2226 PWs)   bands (ev):

   -12.0917  -0.3990   0.5272   1.1661   8.5129  11.0088  13.0673  13.3919
    18.7758  19.8785  23.3225  23.3400  23.4263  23.7374  24.3572

     occupation numbers 
     1.0000   1.0000   1.0000   1.0000   1.0000   1.0000   1.0000   1.0000
     1.0000   1.0000   0.0000   0.0000   0.0000   0.0000   0.0000

          k =-0.7071 0.3536-0.0000 (  2208 PWs)   bands (ev):

   -12.0898   0.0321   0.0321   1.0980   8.8973  12.0610  12.0610  12.9606
    19.2751  19.2751  23.3047  23.3743  23.3743  23.7482  24.3253

     occupation numbers 
     1.0000   1.0000   1.0000   1.0000   1.0000   1.0000   1.0000   1.0000
     1.0000   1.0000   0.0000   0.0000   0.0000   0.0000   0.0000

     the Fermi energy is    22.1280 ev

!    total energy              =    -492.54361301 Ry
     total all-electron energy =      -492.543570 Ry
     estimated scf accuracy    <          9.0E-12 Ry
     smearing contrib. (-TS)   =      -0.00181138 Ry
     internal energy E=F+TS    =    -492.54180163 Ry

     The total energy is F=E-TS. E is the sum of the following terms:
     one-electron contribution =      35.13051665 Ry
     hartree contribution      =       4.20882617 Ry
     xc contribution           =     -23.18672590 Ry
     ewald contribution        =    -103.74985018 Ry
     one-center paw contrib.   =    -404.94456835 Ry
      -> PAW hartree energy AE =      53.66976398 Ry
      -> PAW hartree energy PS =     -53.44990041 Ry
      -> PAW xc energy AE      =    -418.35918393 Ry
      -> PAW xc energy PS      =      13.19610658 Ry
      -> total E_H with PAW    =       4.42868974 Ry
      -> total E_XC with PAW   =    -428.34980326 Ry

     convergence has been achieved in   3 iterations

     Forces acting on atoms (cartesian axes, Ry/au):

     atom    1 type  1   force =     0.00000000   -0.00000000    0.00000000
     atom    2 type  2   force =     0.00000000   -0.00000000   -0.00000000
     atom    3 type  2   force =     0.00000000    0.00000000    0.00000000
     atom    4 type  2   force =    -0.00000019   -0.00000019   -0.00000019
     atom    5 type  2   force =     0.00000019    0.00000019    0.00000019
     atom    6 type  2   force =     0.00000019    0.00000019   -0.00000019
     atom    7 type  2   force =    -0.00000019   -0.00000019    0.00000019
     atom    8 type  2   force =     0.00000019   -0.00000019    0.00000019
     atom    9 type  2   force =    -0.00000019    0.00000019   -0.00000019
     atom   10 type  2   force =    -0.00000019    0.00000019    0.00000019
     atom   11 type  2   force =     0.00000019   -0.00000019   -0.00000019
     The non-local contrib.  to forces
     atom    1 type  1   force =     0.00000000    0.00000000   -0.00000000
     atom    2 type  2   force =     0.00000000    0.00000000    0.00000000
     atom    3 type  2   force =     0.00000000    0.00000000    0.00000000
     atom    4 type  2   force =    -0.00442257   -0.00442257   -0.00442257
     atom    5 type  2   force =     0.00442257    0.00442257    0.00442257
     atom    6 type  2   force =     0.00442257    0.00442257   -0.00442257
     atom    7 type  2   force =    -0.00442257   -0.00442257    0.00442257
     atom    8 type  2   force =     0.00442257   -0.00442257    0.00442257
     atom    9 type  2   force =    -0.00442257    0.00442257   -0.00442257
     atom   10 type  2   force =    -0.00442257    0.00442257    0.00442257
     atom   11 type  2   force =     0.00442257   -0.00442257   -0.00442257
     The ionic contribution  to forces
     atom    1 type  1   force =    -0.00000000   -0.00000000   -0.00000000
     atom    2 type  2   force =    -0.00000000   -0.00000000   -0.00000000
     atom    3 type  2   force =     0.00000000    0.00000000   -0.00000000
     atom    4 type  2   force =     0.09762374    0.09762374    0.09762374
     atom    5 type  2   force =    -0.09762374   -0.09762374   -0.09762374
     atom    6 type  2   force =    -0.09762374   -0.09762374    0.09762374
     atom    7 type  2   force =     0.09762374    0.09762374   -0.09762374
     atom    8 type  2   force =    -0.09762374    0.09762374   -0.09762374
     atom    9 type  2   force =     0.09762374   -0.09762374    0.09762374
     atom   10 type  2   force =     0.09762374   -0.09762374   -0.09762374
     atom   11 type  2   force =    -0.09762374    0.09762374    0.09762374
     The local contribution  to forces
     atom    1 type  1   force =     0.00000000    0.00000000    0.00000000
     atom    2 type  2   force =    -0.00000000    0.00000000    0.00000000
     atom    3 type  2   force =     0.00000000    0.00000000    0.00000000
     atom    4 type  2   force =    -0.09320128   -0.09320128   -0.09320128
     atom    5 type  2   force =     0.09320128    0.09320128    0.09320128
     atom    6 type  2   force =     0.09320128    0.09320128   -0.09320128
     atom    7 type  2   force =    -0.09320128   -0.09320128    0.09320128
     atom    8 type  2   force =     0.09320128   -0.09320128    0.09320128
     atom    9 type  2   force =    -0.09320128    0.09320128   -0.09320128
     atom   10 type  2   force =    -0.09320128    0.09320128    0.09320128
     atom   11 type  2   force =     0.09320128   -0.09320128   -0.09320128
     The core correction contribution to forces
     atom    1 type  1   force =     0.00000000    0.00000000    0.00000000
     atom    2 type  2   force =     0.00000000    0.00000000    0.00000000
     atom    3 type  2   force =     0.00000000    0.00000000    0.00000000
     atom    4 type  2   force =     0.00000000    0.00000000    0.00000000
     atom    5 type  2   force =     0.00000000    0.00000000    0.00000000
     atom    6 type  2   force =     0.00000000    0.00000000    0.00000000
     atom    7 type  2   force =     0.00000000    0.00000000    0.00000000
     atom    8 type  2   force =     0.00000000    0.00000000    0.00000000
     atom    9 type  2   force =     0.00000000    0.00000000    0.00000000
     atom   10 type  2   force =     0.00000000    0.00000000    0.00000000
     atom   11 type  2   force =     0.00000000    0.00000000    0.00000000
     The Hubbard contrib.    to forces
     atom    1 type  1   force =     0.00000000    0.00000000    0.00000000
     atom    2 type  2   force =     0.00000000    0.00000000    0.00000000
     atom    3 type  2   force =     0.00000000    0.00000000    0.00000000
     atom    4 type  2   force =     0.00000000    0.00000000    0.00000000
     atom    5 type  2   force =     0.00000000    0.00000000    0.00000000
     atom    6 type  2   force =     0.00000000    0.00000000    0.00000000
     atom    7 type  2   force =     0.00000000    0.00000000    0.00000000
     atom    8 type  2   force =     0.00000000    0.00000000    0.00000000
     atom    9 type  2   force =     0.00000000    0.00000000    0.00000000
     atom   10 type  2   force =     0.00000000    0.00000000    0.00000000
     atom   11 type  2   force =     0.00000000    0.00000000    0.00000000
     The SCF correction term to forces
     atom    1 type  1   force =     0.00000000    0.00000000   -0.00000000
     atom    2 type  2   force =     0.00000000    0.00000000    0.00000000
     atom    3 type  2   force =    -0.00000000   -0.00000000   -0.00000000
     atom    4 type  2   force =    -0.00000008   -0.00000008   -0.00000008
     atom    5 type  2   force =     0.00000008    0.00000008    0.00000008
     atom    6 type  2   force =     0.00000008    0.00000008   -0.00000008
     atom    7 type  2   force =    -0.00000008   -0.00000008    0.00000008
     atom    8 type  2   force =     0.00000008   -0.00000008    0.00000008
     atom    9 type  2   force =    -0.00000008    0.00000008   -0.00000008
     atom   10 type  2   force =    -0.00000008    0.00000008    0.00000008
     atom   11 type  2   force =     0.00000008   -0.00000008   -0.00000008

     Total force =     0.000001     Total SCF correction =     0.000000
     SCF correction compared to forces is large: reduce conv_thr to get better values


     Computing stress (Cartesian axis) and pressure

          total   stress  (Ry/bohr**3)                   (kbar)     P=     2499.83
   0.01699349  -0.00000000   0.00000000         2499.83       -0.00        0.00
   0.00000000   0.01699349   0.00000000            0.00     2499.83        0.00
   0.00000000   0.00000000   0.01699349            0.00        0.00     2499.83

     kinetic stress (kbar)  20502.45     -0.00      0.00
                               -0.00  20502.45      0.00
                                0.00      0.00  20502.45

     local   stress (kbar)   3218.83      0.00      0.00
                                0.00   3218.83      0.00
                                0.00      0.00   3218.83

     nonloc. stress (kbar)  10821.81      0.00     -0.00
                               -0.00  10821.81      0.00
                                0.00      0.00  10821.81

     hartree stress (kbar)   1122.14      0.00     -0.00
                                0.00   1122.14     -0.00
                               -0.00     -0.00   1122.14

     exc-cor stress (kbar)  -2660.87      0.00     -0.00
                                0.00  -2660.87      0.00
                               -0.00      0.00  -2660.87

     corecor stress (kbar)  -2843.19     -0.00     -0.00
                               -0.00  -2843.19     -0.00
                               -0.00     -0.00  -2843.19

     ewald   stress (kbar) -27661.34     -0.00     -0.00
                               -0.00 -27661.34     -0.00
                               -0.00     -0.00 -27661.34

     hubbard stress (kbar)      0.00      0.00      0.00
                                0.00      0.00      0.00
                                0.00      0.00      0.00

     DFT-D   stress (kbar)      0.00      0.00      0.00
                                0.00      0.00      0.00
                                0.00      0.00      0.00

     XDM     stress (kbar)      0.00      0.00      0.00
                                0.00      0.00      0.00
                                0.00      0.00      0.00

     dft-nl  stress (kbar)      0.00      0.00      0.00
                                0.00      0.00      0.00
                                0.00      0.00      0.00

     TS-vdW  stress (kbar)      0.00      0.00      0.00
                                0.00      0.00      0.00
                                0.00      0.00      0.00

     MDB     stress (kbar)      0.00      0.00      0.00
                                0.00      0.00      0.00
                                0.00      0.00      0.00

     3D-RISM stress (kbar)      0.00      0.00      0.00
                                0.00      0.00      0.00
                                0.00      0.00      0.00

     Message from routine bfgs:
     history already reset at previous step: exiting
     Energy error            =      1.7E-09 Ry
     Gradient error          =      1.9E-07 Ry/Bohr
     Cell gradient error     =      1.7E-01 kbar

     bfgs failed after   4 scf cycles and   1 bfgs steps, convergence not achieved
     (criteria: energy <  1.0E-07 Ry, force <  1.0E-06 Ry/Bohr, cell <  1.0E-02 kbar)

     End of BFGS Geometry Optimization

     Final enthalpy           =    -489.4180153273 Ry

     File ./tmp/Ce1H10.bfgs deleted, as requested
Begin final coordinates
     new unit-cell volume =    183.91652 a.u.^3 (    27.25362 Ang^3 )
     density =      9.15127 g/cm^3

CELL_PARAMETERS (angstrom)
   0.000000000   2.388533732   2.388533732
   2.388533732   0.000000000   2.388533732
   2.388533732   2.388533732  -0.000000000

ATOMIC_POSITIONS (crystal)
Ce               0.5000000000        0.5000000000        0.5000000000
H                0.2500000000        0.2500000000        0.2500000000
H                0.7500000000        0.7500000000        0.7500000000
H                0.8776218821        0.8776218821        0.8776218821
H                0.1223781179        0.1223781179        0.1223781179
H                0.8776218821        0.8776218821        0.3671343537
H                0.1223781179        0.1223781179        0.6328656463
H                0.8776218821        0.3671343537        0.8776218821
H                0.1223781179        0.6328656463        0.1223781179
H                0.3671343537        0.8776218821        0.8776218821
H                0.6328656463        0.1223781179        0.1223781179
End final coordinates



     Writing config-only to output data dir ./tmp/Ce1H10.save/ :
     XML data file

     Writing all to output data dir ./tmp/Ce1H10.save/ :
     XML data file, charge density, pseudopotentials, collected wavefunctions
 
     init_run     :      1.18s CPU      2.18s WALL (       1 calls)
     electrons    :     41.93s CPU     47.97s WALL (       4 calls)
     update_pot   :      0.69s CPU      0.76s WALL (       3 calls)
     forces       :      0.34s CPU      0.38s WALL (       4 calls)
     stress       :      1.33s CPU      1.37s WALL (       4 calls)

     Called by init_run:
     wfcinit      :      0.61s CPU      1.00s WALL (       1 calls)
     wfcinit:atom :      0.01s CPU      0.01s WALL (     104 calls)
     wfcinit:wfcr :      0.56s CPU      0.86s WALL (     104 calls)
     potinit      :      0.24s CPU      0.42s WALL (       1 calls)
     hinit0       :      0.23s CPU      0.53s WALL (       1 calls)

     Called by electrons:
     c_bands      :     28.38s CPU     32.74s WALL (      38 calls)
     sum_band     :      5.13s CPU      5.49s WALL (      38 calls)
     v_of_rho     :      0.40s CPU      0.52s WALL (      39 calls)
     v_h          :      0.02s CPU      0.02s WALL (      39 calls)
     v_xc         :      0.45s CPU      0.57s WALL (      47 calls)
     newd         :      0.84s CPU      0.91s WALL (      39 calls)
     PAW_pot      :      8.50s CPU      8.65s WALL (      42 calls)
     mix_rho      :      0.04s CPU      0.05s WALL (      38 calls)

     Called by c_bands:
     init_us_2    :      0.81s CPU      0.90s WALL (    9152 calls)
     cegterg      :     24.55s CPU     26.39s WALL (    3952 calls)

     Called by sum_band:
     sum_band:wei :      0.15s CPU      0.15s WALL (      38 calls)
     sum_band:loo :      3.73s CPU      3.99s WALL (      38 calls)
     sum_band:buf :      0.03s CPU      0.03s WALL (    3952 calls)
     sum_band:ini :      0.37s CPU      0.40s WALL (    3952 calls)
     sum_band:cal :      0.18s CPU      0.19s WALL (    4264 calls)
     sum_band:bec :      0.05s CPU      0.05s WALL (    4264 calls)
     addusdens    :      1.07s CPU      1.14s WALL (      38 calls)
                                        0.00s GPU  (      38 calls)
     addusd:skk   :      0.00s CPU      0.00s WALL (      76 calls)
                                        0.00s GPU  (      76 calls)

     Called by *egterg:
     cdiaghg      :      4.40s CPU      4.79s WALL (   17110 calls)
     cegterg:over :      0.57s CPU      0.63s WALL (   13782 calls)
     cegterg:upda :      0.20s CPU      0.21s WALL (   13782 calls)
     cegterg:last :      0.27s CPU      0.28s WALL (    8427 calls)
     h_psi        :     18.52s CPU     20.00s WALL (   17838 calls)
     s_psi        :      0.41s CPU      0.45s WALL (   17838 calls)
     g_psi        :      0.07s CPU      0.07s WALL (   13782 calls)

     Called by h_psi:
     h_psi:calbec :      0.63s CPU      0.70s WALL (   17838 calls)
     vloc_psi     :     17.28s CPU     18.63s WALL (   17838 calls)
     add_vuspsi   :      0.46s CPU      0.49s WALL (   17838 calls)

     General routines
     calbec       :      1.00s CPU      1.09s WALL (   29174 calls)
     fft          :      0.20s CPU      0.44s WALL (     605 calls)
     ffts         :      0.01s CPU      0.01s WALL (      77 calls)
     fftw         :     16.33s CPU     17.59s WALL (  382822 calls)
     interpolate  :      0.02s CPU      0.03s WALL (      39 calls)
     davcio       :      0.00s CPU      0.12s WALL (     104 calls)
 
     Parallel routines

     PAW routines
     PAW_pot      :      8.50s CPU      8.65s WALL (      42 calls)
     PAW_symme    :      0.19s CPU      0.20s WALL (      80 calls)
 
     PWSCF        :     46.70s CPU   1m 5.03s WALL

 
   This run was terminated on:  10:26:59  22Oct2025            

=------------------------------------------------------------------------------=
   JOB DONE.
=------------------------------------------------------------------------------=
