
     Program MATDYN v.7.1 starts on 28Oct2025 at 20:16:17 

     This program is part of the open-source Quantum ESPRESSO suite
     for quantum simulation of materials; please cite
         "P. Giannozzi et al., J. Phys.:Condens. Matter 21 395502 (2009);
         "P. Giannozzi et al., J. Phys.:Condens. Matter 29 465901 (2017);
         "P. Giannozzi et al., J. Chem. Phys. 152 154105 (2020);
          URL http://www.quantum-espresso.org", 
     in publications or presentations arising from this work. More details at
     http://www.quantum-espresso.org/quote

     Parallel version (MPI), running on    48 processors

     MPI processes distributed on     1 nodes
     K-points division:     npool     =       4
     R & G space division:  proc/nbgrp/npool/nimage =      12
     180299 MiB available memory on the printing compute node when the environment starts
 
     Message from routine matdyn:
     Z* not found in file La1H10.fc, TO-LO splitting at q=0 will be absent!
 
  Gamma lines for all modes [Rydberg] 
 
 Broadening   0.0050
       1
-0.000002244-0.000002244-0.000004591 0.000101292 0.000164832 0.000000332
 0.000007083 0.000007083 0.000050931 0.000011784 0.000011784 0.000249904
 0.000166273 0.000017431 0.000022856 0.000007136 0.000007136 0.000003608
 0.000003608 0.000126840 0.000012733 0.000270864-0.000194801-0.000007286
-0.000007286-0.000017010 0.000073473 0.000073473 0.000011668-0.000252244
-0.000009945-0.000009945 0.000076056
       2
-0.000002255-0.000002203-0.000004539 0.000104058 0.000163977 0.000000471
 0.000007088 0.000007374 0.000051104 0.000012210 0.000012429 0.000248521
 0.000165496 0.000017557 0.000022409 0.000022900 0.000008490 0.000031234
 0.000004140 0.000084120 0.000012908 0.000269164-0.000190570-0.000008952
-0.000006578-0.000015408 0.000072820 0.000071937 0.000011505-0.000249378
-0.000009853-0.000009639 0.000076184
       3
-0.000002260-0.000002084-0.000004413 0.000112353 0.000161438 0.000000885
 0.000007108 0.000008229 0.000051603 0.000013489 0.000014364 0.000244414
 0.000163176 0.000017929 0.000021126 0.000039452 0.000012477 0.000011370
 0.000005709 0.000089428 0.000013438 0.000264252-0.000178763-0.000013127
-0.000004614-0.000011154 0.000070896 0.000067891 0.000010939-0.000240820
-0.000009564-0.000008696 0.000076545
       4
-0.000002215-0.000001890-0.000004258 0.000126168 0.000157284 0.000001572
 0.000007166 0.000009599 0.000052366 0.000015624 0.000017583 0.000237717
 0.000159356 0.000018525 0.000019182 0.000047373 0.000018846 0.000003217
 0.000008259 0.000092938 0.000014341 0.000256616-0.000161435-0.000017938
-0.000001791-0.000005371 0.000067806 0.000062489 0.000009817-0.000226748
-0.000009032-0.000007053 0.000077066
       5
-0.000002110-0.000001632-0.000004086 0.000145473 0.000151637 0.000002526
 0.000007296 0.000011408 0.000053302 0.000018623 0.000022074 0.000228643
 0.000154105 0.000019314 0.000016851 0.000051537 0.000027143-0.000000076
 0.000011752 0.000096570 0.000015643 0.000246872-0.000140727-0.000021559
 0.000001417 0.000001049 0.000063717 0.000056679 0.000008095-0.000207624
-0.000008193-0.000004649 0.000077640
       6
-0.000001952-0.000001321-0.000003894 0.000170208 0.000144668 0.000003734
 0.000007538 0.000013554 0.000054300 0.000022500 0.000027803 0.000217483
 0.000147529 0.000020246 0.000014473 0.000054355 0.000036730-0.000001126
 0.000016184 0.000100464 0.000017376 0.000235615-0.000118268-0.000022795
 0.000004617 0.000007671 0.000058851 0.000050981 0.000005995-0.000184287
-0.000006975-0.000001454 0.000078131
       7
-0.000001751-0.000000970-0.000003674 0.000200263 0.000136601 0.000005177
 0.000007937 0.000015918 0.000055245 0.000027286 0.000034710 0.000204594
 0.000139772 0.000021265 0.000012401 0.000056770 0.000046873-0.000000793
 0.000021550 0.000104475 0.000019576 0.000223334-0.000095158-0.000021110
 0.000007574 0.000014360 0.000053476 0.000045646 0.000003997-0.000157908
-0.000005310 0.000002498 0.000078391
       8
-0.000001517-0.000000595-0.000003421 0.000235461 0.000127717 0.000006820
 0.000008533 0.000018373 0.000056028 0.000033021 0.000042695 0.000190384
 0.000131021 0.000022301 0.000010941 0.000059174 0.000056841 0.000000636
 0.000027821 0.000108464 0.000022274-0.000072151 0.000210401-0.000016419
 0.000010212 0.000021091 0.000047889 0.000040842 0.000002664-0.000129774
-0.000003149 0.000007110 0.000078272
       9
-0.000001260-0.000000210-0.000003133 0.000275546 0.000118363 0.000008607
 0.000009361 0.000020791 0.000056559 0.000039765 0.000051613 0.000175297
 0.000121515 0.000023278 0.000010303 0.000061736 0.000003068 0.000065979
 0.000034926 0.000112352 0.000025488-0.000049822 0.000197098-0.000008905
 0.000012584 0.000027833 0.000042402 0.000036759 0.000002424-0.000101059
-0.000000466 0.000012229 0.000077633
      10
-0.000000985 0.000000167-0.000002806 0.000320168 0.000108948 0.000010465
 0.000010441 0.000023048 0.000056773 0.000047588 0.000061275 0.000159791
 0.000111534 0.000024112 0.000010579 0.000064539 0.000006462 0.000073755
 0.000042754 0.000116137 0.000029219-0.000028665 0.000183645 0.000001115
 0.000014830 0.000034506 0.000037327 0.000033637 0.000003460-0.000072688
 0.000002733 0.000017661 0.000076352
      11
-0.000000698 0.000000524-0.000002442 0.000368882 0.000099930 0.000012317
 0.000011782 0.000025038 0.000056633 0.000056562 0.000071454 0.000144314
 0.000101394 0.000024706 0.000067630 0.000011758 0.000010784 0.000079769
 0.000051162 0.000119897 0.000033441-0.000009120 0.000170224 0.000013254
 0.000017147 0.000040965 0.000032958 0.000031762 0.000005716-0.000045340
 0.000006409 0.000023197 0.000074328
      12
-0.000000403 0.000000847-0.000002041 0.000421144 0.000091766 0.000014138
 0.000013377 0.000026673 0.000056129 0.000066743 0.000081904 0.000129283
 0.000091426 0.000024945 0.000071045 0.000013774 0.000015989 0.000083746
 0.000059975 0.000123774 0.000038103 0.000008431 0.000156990 0.000027099
 0.000019766 0.000047026 0.000029553 0.000031417 0.000008967-0.000019497
 0.000010491 0.000028626 0.000071487
      13
-0.000000106 0.000001125-0.000001605 0.000476316 0.000084826 0.000016046
 0.000015209 0.000027891 0.000055282 0.000078137 0.000092388 0.000115060
 0.000081954 0.000024689 0.000074817 0.000016557 0.000022018 0.000085530
 0.000068982 0.000127959 0.000043125 0.000023680 0.000144080 0.000042218
 0.000022929 0.000052493 0.000027324 0.000032845 0.000012900 0.000004489
 0.000014880 0.000033752 0.000067782
      14
 0.000000193 0.000001349-0.000001138 0.000533674 0.000079315 0.000018395
 0.000017255 0.000028654 0.000054139 0.000090663 0.000102703 0.000101933
 0.000073262 0.000023795 0.000078976 0.000020052 0.000028808 0.000085084
 0.000077928 0.000132666 0.000048415 0.000036420 0.000131616 0.000058166
 0.000026887 0.000057198 0.000026415 0.000036201 0.000017177 0.000026355
 0.000019454 0.000038405 0.000063197
      15
 0.000000491 0.000001515-0.000000641 0.000592421 0.000075243 0.000021824
 0.000019496 0.000028952 0.000052781 0.000104092 0.000112688 0.000090105
 0.000065577 0.000022212 0.000083550 0.000024158 0.000036299 0.000082501
 0.000086500 0.000138103 0.000053883 0.000046562 0.000119707 0.000074474
 0.000031882 0.000061027 0.000026893 0.000041527 0.000021477 0.000045908
 0.000024074 0.000042450 0.000057745
      16
 0.000000790 0.000001617-0.000000120 0.000651697 0.000072466 0.000027232
 0.000021929 0.000028802 0.000051327 0.000117985 0.000122229 0.000079695
 0.000059062 0.000088558 0.000020146 0.000028576 0.000044440 0.000078024
 0.000094320 0.000144449 0.000059457 0.000054137 0.000108454 0.000090653
 0.000038136 0.000063936 0.000028742 0.000048749 0.000025528 0.000063017
 0.000028593 0.000045788 0.000051471
      17
 0.000001090 0.000001657 0.000000422 0.000710600 0.000070788 0.000035700
 0.000024584 0.000028245 0.000049970 0.000131631 0.000131211 0.000070742
 0.000053812 0.000094013 0.000018071 0.000032794 0.000053203 0.000072061
 0.000151823 0.000100940 0.000065104 0.000059279 0.000097951 0.000106197
 0.000045833 0.000031856 0.000065950 0.000057679 0.000029121 0.000077615
 0.000032866 0.000048365 0.000044448
      18
 0.000001396 0.000001635 0.000000979 0.000768203 0.000070091 0.000048350
 0.000027537 0.000027343 0.000049061 0.000144012 0.000139420 0.000063220
 0.000049870 0.000099920 0.000016424 0.000036391 0.000062579 0.000065170
 0.000160273 0.000105873 0.000070841 0.000062203 0.000088288 0.000120608
 0.000055091 0.000036054 0.000067157 0.000068047 0.000032137 0.000089706
 0.000036753 0.000050160 0.000036776
      19
 0.000001713 0.000001556 0.000001545 0.000823570 0.000070577 0.000066045
 0.000030924 0.000026183 0.000153837 0.000049375 0.000146247 0.000057058
 0.000047240 0.000106281 0.000015352 0.000039264 0.000072582 0.000058015
 0.000169764 0.000108648 0.000076733 0.000063171 0.000079557 0.000133424
 0.000065932 0.000041100 0.000067686 0.000079517 0.000034546 0.000099357
 0.000040134 0.000051194 0.000028583
      20
 0.000002051 0.000001427 0.000002116 0.000875780 0.000073386 0.000088601
 0.000034921 0.000024875 0.000159719 0.000053025 0.000149738 0.000052155
 0.000045899 0.000113104 0.000014804 0.000041520 0.000083243 0.000051277
 0.000180175 0.000108905 0.000082873 0.000062472 0.000071847 0.000144257
 0.000078248 0.000046742 0.000067693 0.000091721 0.000036419 0.000106698
 0.000042910 0.000051517 0.000020019
      21
 0.000002419 0.000001258 0.000002683 0.000923949 0.000082317 0.000112772
 0.000039703 0.000023563 0.000160516 0.000066674 0.000143360 0.000048403
 0.000045808 0.000120402 0.000014706 0.000043295 0.000094603 0.000045546
 0.000191305 0.000106508 0.000089344 0.000060427 0.000065248 0.000152815
 0.000091784 0.000052746 0.000067347 0.000104278 0.000037911 0.000111914
 0.000045015 0.000051206 0.000011251
      22
 0.000002832 0.000001059 0.000003241 0.000967260 0.000106424 0.000129302
 0.000045352 0.000022451 0.000155790 0.000104186 0.000113284 0.000045695
 0.000046916 0.000128201 0.000015017 0.000044675 0.000106699 0.000041227
 0.000202884 0.000101623 0.000096160 0.000057420 0.000059842 0.000158930
 0.000106150 0.000058913 0.000066814 0.000039241 0.000116814 0.000115230
 0.000046417 0.000050360 0.000002462
      23
 0.000003303 0.000000845 0.000003781 0.001004986 0.000153771 0.000128946
 0.000051764 0.000021850 0.000146139 0.000150849 0.000074100 0.000043930
 0.000049166 0.000136540 0.000015726 0.000045703 0.000119548 0.000038497
 0.000214572 0.000094760 0.000103261 0.000053899 0.000055698 0.000162557
 0.000120875 0.000065079 0.000066248 0.000040653 0.000128974 0.000116905
 0.000047124 0.000049088-0.000006156
      24
 0.000003849 0.000000632 0.000004297 0.001036524 0.000215641 0.000118405
 0.000058623 0.000022279 0.000133119 0.000177723 0.000054347 0.000043022
 0.000052490 0.000145470 0.000016836 0.000046391 0.000133126 0.000037323
 0.000225959 0.000086724 0.000110606 0.000050321 0.000052872 0.000163769
 0.000135472 0.000071092 0.000065786 0.000042376 0.000140440 0.000117209
 0.000047181 0.000047507-0.000014410
      25
 0.000004485 0.000000436 0.000004782 0.001061423 0.000279168 0.000108143
 0.000065497 0.000024612 0.000118719 0.000191403 0.000046584 0.000042892
 0.000056809 0.000155044 0.000018354 0.000046740 0.000147347 0.000037519
 0.000236521 0.000078539 0.000118360 0.000047032 0.000051406 0.000162740
 0.000149493 0.000076806 0.000065540 0.000044586 0.000150932 0.000116423
 0.000046672 0.000045733-0.000022108
      26
 0.000005227 0.000000278 0.000005228 0.001079411 0.000339798 0.000100474
 0.000071995 0.000030207 0.000104701 0.000197508 0.000043756 0.000043466
 0.000062036 0.000165314 0.000020288 0.000046742 0.000162050 0.000038822
 0.000245495 0.000071333 0.000127121 0.000044204 0.000051337 0.000159721
 0.000162539 0.000082086 0.000065596 0.000047382 0.000160217 0.000114817
 0.000045715 0.000043873-0.000029072
      27
 0.000006086 0.000000180 0.000005628 0.001090414 0.000396524 0.000094639
 0.000077884 0.000040700 0.000092202 0.000196600 0.000043481 0.000044674
 0.000068071 0.000176320 0.000022658 0.000046386 0.000176995 0.000040947
 0.000251578 0.000138204 0.000066238 0.000041877 0.000052729 0.000155022
 0.000174241 0.000066015 0.000086830 0.000050775 0.000168112 0.000112649
 0.000044454 0.000042024-0.000035138
      28
 0.000007069 0.000000163 0.000005976 0.001094565 0.000448958 0.000089799
 0.000083094 0.000056986 0.000081691 0.000188282 0.000044971 0.000046442
 0.000074807 0.000188082 0.000025508 0.000045653 0.000191875 0.000043632
 0.000252278 0.000154203 0.000064300 0.000040049 0.000055732 0.000148985
 0.000184191 0.000066831 0.000090981 0.000054699 0.000174489 0.000110154
 0.000043049 0.000040265-0.000040164
      29
 0.000008177 0.000000250 0.000006269 0.001092202 0.000496844 0.000085427
 0.000087669 0.000077791 0.000073150 0.000173751 0.000047925 0.000048692
 0.000082128 0.000200595 0.000028929 0.000044500 0.000206334 0.000046652
 0.000242921 0.000179909 0.000066409 0.000038748 0.000060687 0.000141966
 0.000191839 0.000068052 0.000094534 0.000059024 0.000179271 0.000107540
 0.000041668 0.000038656-0.000044036
      30
 0.000009404 0.000000466 0.000006502 0.001083843 0.000540010 0.000081231
 0.000091688 0.000099805 0.000066299 0.000156046 0.000052168 0.000051339
 0.000089912 0.000213827 0.000033102 0.000042831 0.000219981 0.000049825
 0.000217499 0.000221420 0.000073243 0.000038074 0.000068295 0.000134322
 0.000196322 0.000069665 0.000097534 0.000063584 0.000182441 0.000104983
 0.000040469 0.000037237-0.000046672
      31
 0.000010736 0.000000830 0.000006673 0.001070159 0.000578360 0.000077054
 0.000095226 0.000119760 0.000060763 0.000138164 0.000057510 0.000054295
 0.000098027 0.000227727 0.000038369 0.000040425 0.000232386 0.000053005
 0.000178654 0.000276140 0.000085227 0.000038219 0.000079804 0.000126396
 0.000196295 0.000071636 0.000100060 0.000068199 0.000184036 0.000102625
 0.000039590 0.000036028-0.000048021
      32
 0.000012151 0.000001365 0.000006784 0.001051928 0.000611864 0.000072824
 0.000098323 0.000135903 0.000056177 0.000121676 0.000063683 0.000057464
 0.000106323 0.000242234 0.000045191 0.000036984 0.000243053 0.000056075
 0.000144573 0.000325876 0.000102516 0.000039502 0.000096878 0.000118509
 0.000190057 0.000073915 0.000102214 0.000072700 0.000184153 0.000100570
 0.000039132 0.000035029-0.000048070
      33
 0.000013622 0.000002085 0.000006836 0.001029992 0.000640558 0.000068517
 0.000100983 0.000147836 0.000052230 0.000106939 0.000070341 0.000060753
 0.000114605 0.000257316 0.000051926 0.000034348 0.000251398 0.000125233
 0.000058939 0.000360523 0.000124987 0.000042460 0.000120285 0.000110955
 0.000176866 0.000076436 0.000104110 0.000076940 0.000182949 0.000098884
 0.000039150 0.000034226-0.000046839
      34
 0.000015117 0.000003003 0.000006836 0.001005213 0.000664547 0.000064145
 0.000103176 0.000155828 0.000048688 0.000093791 0.000077091 0.000064066
 0.000122587 0.000273015 0.000052149 0.000039174 0.000256799 0.000116794
 0.000061509 0.000383420 0.000048044 0.000152261 0.000147511 0.000103988
 0.000159314 0.000079121 0.000105861 0.000080813 0.000180625 0.000097594
 0.000039646 0.000033592-0.000044384
      35
 0.000016599 0.000004124 0.000006789 0.000978430 0.000684003 0.000059745
 0.000104843 0.000160348 0.000045389 0.000081986 0.000083550 0.000067313
 0.000129831 0.000289508 0.000049403 0.000048164 0.000258765 0.000114619
 0.000063704 0.000397693 0.000058105 0.000183733 0.000173308 0.000097828
 0.000142763 0.000081883 0.000107575 0.000084261 0.000177426 0.000096683
 0.000040579 0.000033095-0.000040791
      36
 0.000018036 0.000005446 0.000006707 0.000950436 0.000699170 0.000055371
 0.000105906 0.000161873 0.000042235 0.000071342 0.000089402 0.000070411
 0.000135892 0.000306936 0.000047439 0.000057812 0.000257214 0.000116195
 0.000065438 0.000401892 0.000076574 0.000218623 0.000194104 0.000092651
 0.000130915 0.000084627 0.000109340 0.000087282 0.000173609 0.000096092
 0.000041872 0.000032695-0.000036178
      37
 0.000019396 0.000006958 0.000006598 0.000921952 0.000710360 0.000051096
 0.000106276 0.000160833 0.000039180 0.000061755 0.000094445 0.000073286
 0.000142425 0.000323240 0.000046362 0.000068231 0.000252677 0.000120006
 0.000066626 0.000388375 0.000112073 0.000256033 0.000209618 0.000088592
 0.000124175 0.000087253 0.000111228 0.000089930 0.000169426 0.000095714
 0.000043431 0.000032355-0.000030682
      38
 0.000020654 0.000008639 0.000006475 0.000893621 0.000717944 0.000047005
 0.000105867 0.000157607 0.000036220 0.000053177 0.000098607 0.000075881
 0.000160597 0.000326660 0.000045968 0.000079793 0.000246273 0.000124837
 0.000067179 0.000341692 0.000180341 0.000295000 0.000221057 0.000085743
 0.000121436 0.000089660 0.000113289 0.000165099 0.000092320 0.000095399
 0.000045169 0.000032042-0.000024466
      39
 0.000021794 0.000010460 0.000006347 0.000865997 0.000722347 0.000043187
 0.000104610 0.000152532 0.000033374 0.000045590 0.000101948 0.000078151
 0.000192414 0.000314353 0.000046130 0.000092716 0.000239489 0.000129681
 0.000067015 0.000255272 0.000287928 0.000334553 0.000229680 0.000084158
 0.000121499 0.000091741 0.000115547 0.000160805 0.000094625 0.000094949
 0.000047013 0.000031728-0.000017703
      40
 0.000022806 0.000012384 0.000006224 0.000839550 0.000724032 0.000039722
 0.000102474 0.000145921 0.000030679 0.000038986 0.000104638 0.000080070
 0.000211655 0.000311571 0.000046759 0.000233842 0.000107077 0.000133795
 0.000066061 0.000168078 0.000395710 0.000373762 0.000236402 0.000083855
 0.000123463 0.000093388 0.000118003 0.000156673 0.000097062 0.000094132
 0.000048911 0.000031393-0.000010579
      41
 0.000023688 0.000014366 0.000006114 0.000814668 0.000723487 0.000036661
 0.000099490 0.000138072 0.000028175 0.000033359 0.000106927 0.000081631
 0.000212385 0.000323469 0.000047774 0.000230498 0.000122821 0.000136703
 0.000064275 0.000115324 0.000468254 0.000411774 0.000241824 0.000084825
 0.000126690 0.000094488 0.000120635 0.000152784 0.000099869 0.000092709
 0.000050834 0.000031027-0.000003282
      42
 0.000024442 0.000016356 0.000006022 0.000791662 0.000721207 0.000034009
 0.000095771 0.000129289 0.000025901 0.000028694 0.000109110 0.000082841
 0.000199079 0.000345263 0.000049090 0.000229984 0.000139758 0.000138148
 0.000061650 0.000089869 0.000512460 0.000447838 0.000246326 0.000087041
 0.000130715 0.000094919 0.000123400 0.000149180 0.000103242 0.000090486
 0.000052762 0.000030628 0.000003997
      43
 0.000025079 0.000018303 0.000005949 0.000770773 0.000717681 0.000031727
 0.000091509 0.000119891 0.000023886 0.000024960 0.000111497 0.000083727
 0.000177947 0.000370929 0.000050615 0.000232151 0.000157557 0.000138118
 0.000058240 0.000078394 0.000541412 0.000481320 0.000250139 0.000090474
 0.000135179 0.000094545 0.000126233 0.000145883 0.000107255 0.000087404
 0.000054682 0.000030201 0.000011075
      44
 0.000025607 0.000020156 0.000005895 0.000752177 0.000713377 0.000029744
 0.000086962 0.000110221 0.000022148 0.000022102 0.000114374 0.000084327
 0.000156180 0.000393761 0.000052252 0.000236287 0.000175746 0.000136931
 0.000054167 0.000073639 0.000562129 0.000511708 0.000253404 0.000095105
 0.000139789 0.000093200 0.000129055 0.000142900 0.000111782 0.000083607
 0.000056570 0.000029758 0.000017777
      45
 0.000026039 0.000021866 0.000005860 0.000735992 0.000708728 0.000027988
 0.000082412 0.000100652 0.000020694 0.000020035 0.000117971 0.000084689
 0.000138008 0.000410104 0.000053903 0.000241324 0.000193724 0.000135263
 0.000049630 0.000072145 0.000577822 0.000538604 0.000256197 0.000100959
 0.000144295 0.000090675 0.000131776 0.000140238 0.000116504 0.000079437
 0.000058394 0.000029317 0.000023940
      46
 0.000026386 0.000023389 0.000005840 0.000722290 0.000704119 0.000026415
 0.000078129 0.000091583 0.000019516 0.000018649 0.000122411 0.000084868
 0.000123567 0.000420424 0.000055475 0.000210790 0.000246204 0.000133933
 0.000044903 0.000072095 0.000589992 0.000561714 0.000258556 0.000108135
 0.000148481 0.000086689 0.000134299 0.000137914 0.000121020 0.000075324
 0.000060104 0.000028897 0.000029417
      47
 0.000026657 0.000024688 0.000005830 0.000711101 0.000699886 0.000025021
 0.000074344 0.000083423 0.000018598 0.000017807 0.000127646 0.000084919
 0.000111575 0.000426654 0.000056886 0.000226184 0.000250281 0.000133640
 0.000040320 0.000072253 0.000599393 0.000580827 0.000260493 0.000116852
 0.000152164 0.000080849 0.000136527 0.000135950 0.000124978 0.000071645
 0.000061636 0.000028518 0.000034081
      48
 0.000026860 0.000025730 0.000005827 0.000702427 0.000696306 0.000023842
 0.000071236 0.000076569 0.000017919 0.000017362 0.000133347 0.000084895
 0.000101255 0.000430379 0.000058061 0.000239145 0.000253370 0.000135168
 0.000036242 0.000071284 0.000606428 0.000595803 0.000262010 0.000127453
 0.000155190 0.000072660 0.000138369 0.000134379 0.000128160 0.000068648
 0.000062920 0.000028200 0.000037822
      49
 0.000027000 0.000026491 0.000005828 0.000696254 0.000693594 0.000022935
 0.000068933 0.000071381 0.000017455 0.000017169 0.000138790 0.000084842
 0.000092740 0.000432555 0.000058942 0.000248977 0.000255517 0.000140461
 0.000033023 0.000066736 0.000611327 0.000606551 0.000263100 0.000140080
 0.000157439 0.000061854 0.000139747 0.000133233 0.000130459 0.000066461
 0.000063889 0.000027959 0.000040557
      50
 0.000027083 0.000026955 0.000005830 0.000692561 0.000691906 0.000022362
 0.000067519 0.000068144 0.000017186 0.000017108 0.000142858 0.000084795
 0.000086892 0.000433696 0.000059489 0.000255119 0.000256787 0.000155433
 0.000030959 0.000052336 0.000614220 0.000613019 0.000263758 0.000152986
 0.000158824 0.000050080 0.000140599 0.000132537 0.000131842 0.000065138
 0.000064491 0.000027810 0.000042222
      51
 0.000027111 0.000027111 0.000005831 0.000691333 0.000691333 0.000022165
 0.000067043 0.000067043 0.000017097 0.000017097 0.000144386 0.000084777
 0.000084777 0.000434052 0.000059674 0.000257209 0.000257209 0.000177732
 0.000030247 0.000030247 0.000615178 0.000615178 0.000263977 0.000159292
 0.000159292 0.000044158 0.000140888 0.000132303 0.000132303 0.000064695
 0.000064695 0.000027759 0.000042782
      52
 0.000026955 0.000026955 0.000005816 0.000693312 0.000693312 0.000022378
 0.000066593 0.000066593 0.000017439 0.000017439 0.000145246 0.000084525
 0.000084525 0.000431657 0.000060118 0.000256462 0.000256462 0.000179021
 0.000030537 0.000030537 0.000614721 0.000614721 0.000265739 0.000160828
 0.000160828 0.000057065 0.000128149 0.000132599 0.000132599 0.000064686
 0.000064686 0.000028776 0.000044810
      53
 0.000026496 0.000026496 0.000005770 0.000699141 0.000699141 0.000023069
 0.000065307 0.000065307 0.000018404 0.000018404 0.000147905 0.000083791
 0.000083791 0.000424579 0.000061410 0.000254220 0.000254220 0.000182963
 0.000031418 0.000031418 0.000613255 0.000613255 0.000271815 0.000072764
 0.000165411 0.000165411 0.000111731 0.000133428 0.000133428 0.000064694
 0.000064694 0.000031700 0.000050904
      54
 0.000025757 0.000025757 0.000005695 0.000708500 0.000708500 0.000024403
 0.000063354 0.000063354 0.000019845 0.000019845 0.000152583 0.000082638
 0.000082638 0.000413133 0.000063439 0.000250477 0.000250477 0.000189700
 0.000032929 0.000032929 0.000610483 0.000610483 0.000285854 0.000076336
 0.000172969 0.000172969 0.000101711 0.000134624 0.000134624 0.000064811
 0.000064811 0.000036182 0.000061047
      55
 0.000024777 0.000024777 0.000005593 0.000720849 0.000720849 0.000026702
 0.000060951 0.000060951 0.000021578 0.000021578 0.000159593 0.000081163
 0.000081163 0.000397826 0.000066025 0.000245217 0.000245217 0.000199191
 0.000035139 0.000035139 0.000605895 0.000605895 0.000308212 0.000067244
 0.000183390 0.000183390 0.000096585 0.000135947 0.000135947 0.000065151
 0.000065151 0.000041750 0.000075092
      56
 0.000023598 0.000023598 0.000005467 0.000735434 0.000735434 0.000030525
 0.000058318 0.000058318 0.000023439 0.000023439 0.000169187 0.000079492
 0.000079492 0.000379317 0.000068942 0.000210922 0.000238408 0.000238408
 0.000038147 0.000038147 0.000598756 0.000598756 0.000230726 0.000153444
 0.000196533 0.000196533 0.000094781 0.000137129 0.000137129 0.000065805
 0.000065805 0.000047897 0.000092665
      57
 0.000022269 0.000022269 0.000005322 0.000751279 0.000751279 0.000036820
 0.000055657 0.000055657 0.000025306 0.000025306 0.000181244 0.000077767
 0.000077767 0.000358383 0.000071938 0.000223765 0.000229993 0.000229993
 0.000042096 0.000042096 0.000588098 0.000588098 0.000189414 0.000198480
 0.000212229 0.000212229 0.000095219 0.000137911 0.000137911 0.000066793
 0.000066793 0.000054138 0.000113088
      58
 0.000020835 0.000020835 0.000005164 0.000767193 0.000767193 0.000047182
 0.000053155 0.000053155 0.000027103 0.000027103 0.000194709 0.000076127
 0.000076127 0.000335868 0.000236139 0.000074752 0.000219879 0.000219879
 0.000047182 0.000047182 0.000572767 0.000572767 0.000175405 0.000210999
 0.000230244 0.000230244 0.000097062 0.000138075 0.000138075 0.000068035
 0.000068035 0.000060042 0.000135345
      59
 0.000019337 0.000019337 0.000005002 0.000781774 0.000781774 0.000064228
 0.000051003 0.000051003 0.000028793 0.000028793 0.000206821 0.000074693
 0.000074693 0.000312635 0.000246433 0.000077139 0.000207918 0.000207918
 0.000053667 0.000053667 0.000551523 0.000551523 0.000166114 0.000250191
 0.000250191 0.000213726 0.000099610 0.000137452 0.000137452 0.000069337
 0.000069337 0.000065240 0.000158085
      60
 0.000017808 0.000017808 0.000004846 0.000793430 0.000793430 0.000091906
 0.000049408 0.000049408 0.000030368 0.000030368 0.000212506 0.000073546
 0.000073546 0.000289518 0.000253481 0.000078891 0.000193909 0.000193909
 0.000061890 0.000061890 0.000523269 0.000523269 0.000156928 0.000271335
 0.000271335 0.000211720 0.000102264 0.000135913 0.000135913 0.000070413
 0.000070413 0.000069422 0.000179641
      61
 0.000016275 0.000016275 0.000004712 0.000800406 0.000800406 0.000134716
 0.000048603 0.000048603 0.000031845 0.000031845 0.000205128 0.000072712
 0.000072712 0.000267282 0.000256795 0.000079846 0.000177609 0.000177609
 0.000072255 0.000072255 0.000146844 0.000487392 0.000487392 0.000292293
 0.000292293 0.000206624 0.000104516 0.000133342 0.000133342 0.000070914
 0.000070914 0.000072344 0.000198088
      62
 0.000014757 0.000014757 0.000004617 0.000800833 0.000800833 0.000193786
 0.000048857 0.000048857 0.000033263 0.000033263 0.000180723 0.000072146
 0.000072146 0.000246583 0.000256485 0.000079899 0.000158809 0.000158809
 0.000085158 0.000085158 0.000135820 0.000444148 0.000444148 0.000310715
 0.000310715 0.000199177 0.000105949 0.000129613 0.000129613 0.000070474
 0.000070474 0.000073827 0.000211313
      63
 0.000013266 0.000013266 0.000004583 0.000792814 0.000792814 0.000261158
 0.000050453 0.000050453 0.000034681 0.000034681 0.000144164 0.000071723
 0.000071723 0.000252979 0.000227951 0.000079005 0.000137538 0.000137538
 0.000100796 0.000100796 0.000124094 0.000394872 0.000394872 0.000323154
 0.000323154 0.000189820 0.000106235 0.000124568 0.000124568 0.000068762
 0.000068762 0.000073769 0.000217115
      64
 0.000011812 0.000011812 0.000004636 0.000774540 0.000774540 0.000322182
 0.000053648 0.000053648 0.000107173 0.000036179 0.000036179 0.000071239
 0.000071239 0.000246777 0.000211772 0.000077170 0.000114452 0.000114452
 0.000118763 0.000118763 0.000111957 0.000341767 0.000341767 0.000325384
 0.000325384 0.000178873 0.000105127 0.000118002 0.000118002 0.000065535
 0.000065535 0.000072156 0.000213323
      65
 0.000010398 0.000010398 0.000004811 0.000744473 0.000744473 0.000366116
 0.000058587 0.000058587 0.000077963 0.000037852 0.000037852 0.000070417
 0.000070417 0.000238328 0.000198281 0.000074444 0.000091343 0.000091343
 0.000099674 0.000137509 0.000137509 0.000287277 0.000287277 0.000313177
 0.000313177 0.000166594 0.000102458 0.000109661 0.000109661 0.000060686
 0.000060686 0.000069075 0.000197940
      66
 0.000009031 0.000009031 0.000005150 0.000701590 0.000701590 0.000389710
 0.000065163 0.000065163 0.000057778 0.000039805 0.000039805 0.000068922
 0.000068922 0.000228013 0.000187575 0.000070911 0.000071321 0.000071321
 0.000087474 0.000154078 0.000154078 0.000233446 0.000233446 0.000283166
 0.000283166 0.000153199 0.000098140 0.000099260 0.000099260 0.000054279
 0.000054279 0.000064712 0.000169296
      67
 0.000007712 0.000007712 0.000005700 0.000393580 0.000645683 0.000645683
 0.000072833 0.000072833 0.000044579 0.000042134 0.000042134 0.000066387
 0.000066387 0.000216171 0.000179617 0.000066674 0.000057979 0.000057979
 0.000075559 0.000164750 0.000164750 0.000181729 0.000181729 0.000233354
 0.000233354 0.000138866 0.000092163 0.000086505 0.000086505 0.000046570
 0.000046570 0.000059350 0.000126227
      68
 0.000006447 0.000006447 0.000006512 0.000379306 0.000577632 0.000577632
 0.000080456 0.000080456 0.000035995 0.000044906 0.000044906 0.000062453
 0.000062453 0.000203129 0.000174255 0.000061843 0.000064126 0.000053764
 0.000053764 0.000166365 0.000166365 0.000133404 0.000133404 0.000163173
 0.000163173 0.000123747 0.000084597 0.000071142 0.000071142 0.000038005
 0.000038005 0.000053346 0.000068246
      69
 0.000005242 0.000005242 0.000007620 0.000348645 0.000499531 0.000499531
 0.000086274 0.000086274 0.000030175 0.000048126 0.000048126 0.000056802
 0.000056802 0.000189203 0.000171242 0.000056529 0.000053390 0.000058904
 0.000058904 0.000156986 0.000156986 0.000090305 0.000090305 0.000073304
 0.000073304 0.000107968 0.000053011 0.000053011 0.000075597 0.000029184
 0.000029184 0.000047101-0.000004280
      70
 0.000004105 0.000004105 0.000009009 0.000303598 0.000414532 0.000414532
 0.000088162 0.000088162 0.000025805 0.000051704 0.000051704 0.000049221
 0.000049221 0.000174680 0.000170250 0.000050841 0.000043607 0.000071617
 0.000071617 0.000135518 0.000135518 0.000055315 0.000055315-0.000034487
-0.000034487 0.000091651 0.000032118 0.000032118 0.000065412 0.000020805
 0.000020805 0.000041016-0.000089976
      71
 0.000003046 0.000003046 0.000010561 0.000246637 0.000326369 0.000326369
 0.000084158 0.000084158 0.000021969 0.000055429 0.000055429 0.000039644
 0.000039644 0.000159796 0.000170892 0.000044886 0.000035080 0.000088913
 0.000088913 0.000101684 0.000101684 0.000031775 0.000031775-0.000157405
-0.000157405 0.000074924 0.000008698 0.000008698 0.000054378 0.000013577
 0.000013577 0.000035452-0.000186337
      72
 0.000002079 0.000002079 0.000012034 0.000180850 0.000238749 0.000238749
 0.000073093 0.000073093 0.000018046 0.000058946 0.000058946 0.000028206
 0.000028206 0.000144717 0.000172737 0.000028151 0.000038773 0.000107424
 0.000107424 0.000057509 0.000057509 0.000021240 0.000021240-0.000291580
-0.000291580 0.000057948-0.000016729-0.000016729 0.000042925 0.000008118
 0.000008118 0.000030686-0.000289649
      73
 0.000001217 0.000001217 0.000013114 0.000109925 0.000154868 0.000154868
 0.000055033 0.000055033 0.000013652 0.000061768 0.000061768 0.000015285
 0.000015285 0.000129534 0.000175329 0.000023178 0.000032620 0.000124163
 0.000124163 0.000008823 0.000008823 0.000021197 0.000021197-0.000431979
-0.000431979 0.000040944-0.000043321-0.000043321 0.000031558 0.000004868
 0.000004868 0.000026885-0.000394976
      74
 0.000000477 0.000000477 0.000013563 0.000037963 0.000077251 0.000077251
 0.000031362 0.000031362 0.000008615 0.000063308 0.000063308 0.000001510
 0.000001510 0.000114292 0.000178201 0.000020489 0.000026557 0.000137102
 0.000137102-0.000036396-0.000036396 0.000026085 0.000026085-0.000572335
-0.000572335 0.000024217-0.000069919-0.000069919 0.000004008 0.000004008
 0.000020838 0.000024091-0.000496211
      75
-0.000000128-0.000000128 0.000013362-0.000030760 0.000007865 0.000007865
 0.000004521 0.000004521 0.000002956 0.000062942 0.000062942 0.000099028
-0.000012246-0.000012246 0.000180898 0.000020340 0.000020729 0.000145339
 0.000145339-0.000071925-0.000071925 0.000030953 0.000030953-0.000705122
-0.000705122 0.000008185-0.000095093-0.000095093 0.000005438 0.000005438
 0.000011350 0.000022231-0.000586205
      76
-0.000000584-0.000000584 0.000012686-0.000091950-0.000051614-0.000051614
-0.000022436-0.000022436-0.000003105 0.000060101 0.000060101 0.000083842
-0.000024917-0.000024917 0.000182991 0.000022874 0.000148854 0.000148854
 0.000015295-0.000095129-0.000095129 0.000033455 0.000033455-0.000821625
-0.000821625-0.000006604-0.000117215-0.000117215 0.000008787 0.000008787
 0.000003667 0.000021135-0.000656975
      77
-0.000000881-0.000000881 0.000011765-0.000141378-0.000099559-0.000099559
-0.000046296-0.000046296-0.000009151 0.000054383 0.000054383 0.000068973
-0.000035338-0.000035338 0.000184101 0.000028086 0.000148119 0.000148119
 0.000010425-0.000106115-0.000106115 0.000033317 0.000033317-0.000912096
-0.000912096-0.000019454-0.000134573-0.000134573 0.000013479 0.000013479
-0.000001695 0.000020581-0.000699975
      78
-0.000001014-0.000001014 0.000010770-0.000175062-0.000134257-0.000134257
-0.000064109-0.000064109-0.000014564 0.000045724 0.000045724 0.000054893
-0.000042361-0.000042361 0.000183913 0.000035824 0.000143769 0.000143769
 0.000006288-0.000106346-0.000106346 0.000031203 0.000031203-0.000966022
-0.000966022-0.000029531-0.000145475-0.000145475 0.000018829 0.000018829
-0.000004307 0.000020336-0.000706436
      79
-0.000000986-0.000000986 0.000009784-0.000189576-0.000153891-0.000153891
-0.000073546-0.000073546-0.000018517 0.000034631 0.000034631 0.000042420
-0.000045003-0.000045003 0.000182193 0.000045799 0.000136440 0.000136440
 0.000003048-0.000097810-0.000097810 0.000028005 0.000028005-0.000972494
-0.000972494-0.000035872-0.000148352-0.000148352 0.000024145 0.000024145
-0.000003863 0.000020205-0.000667745
      80
-0.000000806-0.000000806 0.000008833-0.000182461-0.000156639-0.000156639
-0.000073239-0.000073239-0.000019983 0.000022493 0.000022493 0.000032849
-0.000042596-0.000042596 0.000178796 0.000057624 0.000126707 0.000126707
 0.000000848-0.000082676-0.000082676 0.000024539 0.000024539-0.000920675
-0.000920675-0.000037418-0.000141835-0.000141835 0.000028820 0.000028820
-0.000000201 0.000020063-0.000575855
      81
-0.000000492-0.000000492 0.000007918-0.000152630-0.000140851-0.000140851
-0.000017762-0.000063066-0.000063066 0.000011901 0.000011901 0.000028095
-0.000034920-0.000034920 0.000173674 0.000070867 0.000115096 0.000115096
-0.000000197-0.000063173-0.000063173 0.000021432 0.000021432-0.000800340
-0.000800340-0.000033048-0.000124801-0.000124801 0.000032400 0.000032400
 0.000006680 0.000019878-0.000423693
      82
-0.000000073-0.000000073 0.000007039-0.000100688-0.000105274-0.000105274
-0.000010571-0.000044278-0.000044278 0.000006846 0.000006846 0.000030841
-0.000022303-0.000022303 0.000085096 0.000166876 0.000102110 0.000102110
-0.000000006-0.000041496-0.000041496 0.000019079 0.000019079-0.000602480
-0.000602480-0.000021617-0.000096408-0.000096408 0.000034617 0.000034617
 0.000016604 0.000019710-0.000205568
      83
 0.000000420 0.000000420 0.000006198-0.000029052-0.000049286-0.000049286
 0.000002780-0.000019323-0.000019323 0.000012587 0.000012587 0.000044640
-0.000005648-0.000005648 0.000099911 0.000158531 0.000088243 0.000088243
 0.000001460-0.000019679-0.000019679 0.000017637 0.000017637-0.000319935
-0.000319935-0.000001992-0.000056109-0.000056109 0.000035390 0.000035390
 0.000029208 0.000019685 0.000082476
      84
 0.000000947 0.000000947 0.000005405 0.000058247 0.000026883 0.000026883
 0.000023103 0.000008668 0.000008668 0.000035124 0.000035124 0.000073893
 0.000013616 0.000013616 0.000114914 0.000148842 0.000073991 0.000073991
 0.000004204 0.000000546 0.000000546 0.000017038 0.000017038 0.000051987
 0.000051987 0.000026922-0.000003666-0.000003666 0.000034797 0.000034797
 0.000043927 0.000019952 0.000442338
      85
 0.000001467 0.000001467 0.000004673 0.000156158 0.000121994 0.000121994
 0.000050457 0.000036577 0.000036577 0.000080397 0.000080397 0.000123638
 0.000033678 0.000033678 0.000129617 0.000138061 0.000059841 0.000059841
 0.000008193 0.000017907 0.000017907 0.000017044 0.000017044 0.000514945
 0.000514945 0.000066164 0.000060840 0.000060840 0.000033038 0.000033038
 0.000059978 0.000020630 0.000873625
      86
 0.000001940 0.000001940 0.000004012 0.000259538 0.000233718 0.000233718
 0.000083828 0.000061868 0.000061868 0.000153506 0.000153506 0.000199073
 0.000052580 0.000052580 0.000143274 0.000126466 0.000046255 0.000046255
 0.000013362 0.000031690 0.000031690 0.000017326 0.000017326 0.001067118
 0.001067118 0.000116691 0.000136998 0.000136998 0.000030386 0.000030386
 0.000076347 0.000021761 0.001373489
      87
 0.000002333 0.000002333 0.000003433 0.000364129 0.000358668 0.000358668
 0.000121016 0.000082830 0.000082830 0.000258149 0.000258149 0.000304843
 0.000068496 0.000068496 0.000154722 0.000114344 0.000033648 0.000033648
 0.000019625 0.000041780 0.000041780 0.000017560 0.000017560 0.001702943
 0.001702943 0.000179340 0.000224054 0.000224054 0.000027141 0.000027141
 0.000091786 0.000023275 0.001936555
      88
 0.000002618 0.000002618 0.000002940 0.000467229 0.000492547 0.000492547
 0.000158875 0.000098533 0.000098533 0.000396295 0.000396295 0.000444203
 0.000080020 0.000080020 0.000162366 0.000101967 0.000022364 0.000022364
 0.000026875 0.000048603 0.000048603 0.000017494 0.000017494 0.002413071
 0.002413071 0.000254760 0.000320905 0.000320905 0.000023590 0.000023590
 0.000104854 0.000024989 0.002554948
      89
 0.000002778 0.000002778 0.000002531 0.000630432 0.000630432 0.000567802
 0.000193838 0.000108621 0.000108621 0.000568020 0.000568020 0.000618158
 0.000086376 0.000086376 0.000164478 0.000089586 0.000012664 0.000012664
 0.000034983 0.000053004 0.000053004 0.000016992 0.000016992 0.003184574
 0.003184574 0.000343254 0.000426102 0.000426102 0.000019982 0.000019982
 0.000114032 0.000026626 0.003218418
      90
 0.000002808 0.000002808 0.000002194 0.000767156 0.000767156 0.000666071
 0.000222510 0.000113115 0.000113115 0.000771418 0.000771418 0.000824765
 0.000087500 0.000087500 0.000159844 0.000077420 0.000004714 0.000004714
 0.000043804 0.000056064 0.000056064 0.000016030 0.000016030 0.004001382
 0.004001382 0.000444545 0.000537849 0.000537849 0.000016512 0.000016512
 0.000117953 0.000027856 0.003914559
      91
 0.000002713 0.000002713 0.000001916 0.000897764 0.000897764 0.000762847
 0.000242102 0.000112273 0.000112273 0.001002569 0.001002569 0.001058853
 0.000083968 0.000083968 0.000148435 0.000065658-0.000001422-0.000001422
 0.000053164 0.000058899 0.000058899 0.000014665 0.000014665 0.004844902
 0.004844902 0.000557449 0.000654025 0.000654025 0.000013315 0.000013315
 0.000115726 0.000028353 0.004629124
      92
 0.000002507 0.000002507 0.000001676 0.001017966 0.001017966 0.000858881
 0.000250632 0.000106546 0.000106546 0.001255591 0.001255591 0.001312503
 0.000076794 0.000076794 0.000131580 0.000054464-0.000005772-0.000005772
 0.000062860 0.000062466 0.000062466 0.000012994 0.000012994 0.005694765
 0.005694765 0.000772201 0.000772201 0.000679561 0.000010472 0.000010472
 0.000107290 0.000027852 0.005346425
      93
 0.000002213 0.000002213 0.000001456 0.001124523 0.001124523 0.000954374
 0.000246972 0.000096583 0.000096583 0.001522800 0.001522800 0.001576254
 0.000067167 0.000067167 0.000111423 0.000043986-0.000008448-0.000008448
 0.000072660 0.000067417 0.000067417 0.000011123 0.000011123 0.006529626
 0.006529626 0.000889680 0.000889680 0.000807116 0.000008015 0.000008015
 0.000093606 0.000026206 0.006049806
      94
 0.000001859 0.000001859 0.000001238 0.001215475 0.001215475 0.001048695
 0.000230872 0.000083257 0.000083257 0.001794981 0.001794981 0.001840435
 0.000056201 0.000056201 0.000090106 0.000034354-0.000009620-0.000009620
 0.000082299 0.000074009 0.000074009 0.000009151 0.000009151 0.007327974
 0.007327974 0.001003547 0.001003547 0.000935205 0.000005945 0.000005945
 0.000076523 0.000023422 0.006722171
      95
 0.000001474 0.000001474 0.000001013 0.001290184 0.001290184 0.001140275
 0.000203067 0.000067669 0.000067669 0.002061803 0.002061803 0.002095945
 0.000044786 0.000044786 0.000069265-0.000009499-0.000009499 0.000025694
 0.000091492 0.000082087 0.000082087 0.000007171 0.000007171 0.008068896
 0.008068896 0.001110750 0.001110750 0.001058352 0.000004239 0.000004239
 0.000058310 0.000019676 0.007346558
      96
 0.000001089 0.000001089 0.000000779 0.001349167 0.001349167 0.001226638
 0.000165514 0.000051120 0.000051120 0.002312346 0.002312346 0.002334290
 0.000033564 0.000033564 0.000049998-0.000008326-0.000008326 0.000018123
 0.000099940 0.000091132 0.000091132 0.000005272 0.000005272 0.008732790
 0.008732790 0.001208196 0.001208196 0.001171243 0.000002867 0.000002867
 0.000041053 0.000015297 0.007906723
      97
 0.000000732 0.000000732 0.000000547 0.001393777 0.001393777 0.001304582
 0.000121687 0.000035016 0.000035016 0.002535722 0.002535722 0.002547188
 0.000033074 0.000023042 0.000023042-0.000006400-0.000006400 0.000011752
 0.000107345 0.000100361 0.000100361 0.000003543 0.000003543 0.009301989
 0.009301989 0.001292879 0.001292879 0.001269301 0.000001795 0.000001795
 0.000026230 0.000010732 0.008387721
      98
 0.000000427 0.000000427 0.000000332 0.001425806 0.001425806 0.001370489
 0.000076728 0.000020751 0.000020751 0.002721741 0.002721741 0.002726172
 0.000019114 0.000013764 0.000013764-0.000004128-0.000004128 0.000006680
 0.000113435 0.000108858 0.000108858 0.000002075 0.000002075 0.009761297
 0.009761297 0.001362033 0.001362033 0.001348940 0.000000992 0.000000992
 0.000014611 0.000006481 0.008776461
      99
 0.000000195 0.000000195 0.000000156 0.001447090 0.001447090 0.001420762
 0.000037157 0.000009569 0.000009569 0.002861577 0.002861577 0.002862606
 0.000008669 0.000006402 0.000006402-0.000002011-0.000002011 0.000002992
 0.000117969 0.000115715 0.000115715 0.000000954 0.000000954 0.010098438
 0.010098438 0.001413284 0.001413284 0.001407552 0.000000436 0.000000436
 0.000006418 0.000003029 0.009062190
     100
 0.000000049 0.000000049 0.000000040 0.001459177 0.001459177 0.001452322
 0.000009800 0.000002445 0.000002445 0.002948384 0.002948384 0.002948462
 0.000002194 0.000001646 0.000001646-0.000000529-0.000000529 0.000000751
 0.000120768 0.000120169 0.000120169 0.000000249 0.000000249 0.010304397
 0.010304397 0.001444805 0.001444805 0.001443388 0.000000108 0.000000108
 0.000001590 0.000000780 0.009236917
     101
 0.000000000 0.000000000 0.000000000 0.001463088 0.001463088 0.001463088
 0.000000000 0.000000000 0.000000000 0.002977816 0.002977816 0.002977816
 0.000000000 0.000000000 0.000000000 0.000000000 0.000000000 0.000000000
 0.000121713 0.000121713 0.000121713 0.000000009 0.000000009 0.010373667
 0.010373667 0.001455443 0.001455443 0.001455443 0.000000000 0.000000000
 0.000000000-0.000000000 0.009295713
     102
 0.000000011 0.000000011 0.000000164 0.001457719 0.001457719 0.001449076
 0.000009361 0.000009361 0.000000811 0.002933052 0.002933052 0.002949965
 0.000001368 0.000001368 0.000004611-0.000001666-0.000001666 0.000002945
 0.000119326 0.000120215 0.000120215 0.000000242 0.000000425 0.010282201
 0.010280736 0.001440984 0.001440984 0.001440020 0.000001684 0.000000348
 0.000000348 0.000001034 0.009217406
     103
 0.000000051 0.000000051 0.000000641 0.001441252 0.001441252 0.001408183
 0.000035488 0.000035488 0.000003188 0.002803200 0.002803200 0.002867406
 0.000005474 0.000005474 0.000018193-0.000006338-0.000006338 0.000011615
 0.000112374 0.000115846 0.000115846 0.000000981 0.000001683 0.010012310
 0.010006206 0.001398469 0.001398469 0.001394686 0.000006582 0.000001341
 0.000001341 0.000003935 0.008985746
     104
 0.000000135 0.000000135 0.000001387 0.001412690 0.001412690 0.001343635
 0.000072940 0.000072940 0.000006973 0.002600910 0.002600910 0.002733169
 0.000012330 0.000012330 0.000040021-0.000013061-0.000013061 0.000025541
 0.000101468 0.000108961 0.000108961 0.000002328 0.000003807 0.009577193
 0.009562570 0.001330368 0.001330369 0.001322150 0.000014247 0.000002874
 0.000002874 0.000008151 0.008610315
     105
 0.000000285 0.000000285 0.000002330 0.001370654 0.001370654 0.001260199
 0.000114076 0.000114076 0.000011948 0.002345028 0.002345028 0.002552435
 0.000021956 0.000021956 0.000068987-0.000020345-0.000020345 0.000044006
 0.000087558 0.000100103 0.000100103 0.000004426 0.000006812 0.008969718
 0.008997824 0.001240463 0.001240463 0.001226611 0.000023951 0.000004888
 0.000004888 0.000012908 0.008106426
     106
 0.000000528 0.000000528 0.000003384 0.001313818 0.001313818 0.001163441
 0.000150970 0.000150970 0.000017878 0.002332572 0.002057547 0.002057547
 0.000034346 0.000034346 0.000103713-0.000026319-0.000026319 0.000066127
 0.000071831 0.000089935 0.000089935 0.000007408 0.000010666 0.008253629
 0.008301500 0.001133442 0.001133442 0.001113349 0.000034748 0.000007462
 0.000007462 0.000017382 0.007494189
     107
 0.000000884 0.000000884 0.000004449 0.001241483 0.001241483 0.001058986
 0.000177407 0.000177406 0.000024558 0.002082998 0.001760176 0.001760176
 0.000049399 0.000049399 0.000142652-0.000028945-0.000028945 0.000090945
 0.000055595 0.000079180 0.000079180 0.000011350 0.000015274 0.007444699
 0.007520016 0.001014495 0.001014495 0.000988260 0.000045566 0.000010842
 0.000010842 0.000020859 0.006797324
     108
 0.000001365 0.000001365 0.000005430 0.001154173 0.001154173 0.000951910
 0.000190199 0.000190199 0.000031823 0.001814768 0.001471496 0.001471496
 0.000066811 0.000066811 0.000184165-0.000026273-0.000026273 0.000117504
 0.000040140 0.000068573 0.000068573 0.000016235 0.000020459 0.006575857
 0.006687586 0.000888964 0.000888964 0.000857388 0.000055360 0.000015386
 0.000015386 0.000022856 0.006041805
     109
 0.000001975 0.000001975 0.000006244 0.001054070 0.001054069 0.000846370
 0.000189357 0.000189357 0.000039549 0.001539891 0.001205396 0.001205396
 0.000085963 0.000085963 0.000226566-0.000016701-0.000016701 0.000144919
 0.000026611 0.000058819 0.000058819 0.000021921 0.000025982 0.005680599
 0.005838697 0.000762047 0.000762047 0.000726517 0.000021453 0.000021453
 0.000063295 0.000023172 0.005254441
     110
 0.000002704 0.000002704 0.000006830 0.000945098 0.000945098 0.000745456
 0.000177275 0.000177274 0.000047623 0.001270455 0.000970882 0.000970883
 0.000105844 0.000105844 0.000268165 0.000000792 0.000000792 0.000172426
 0.000015888 0.000050564 0.000050564 0.000028146 0.000031568 0.004791092
 0.005006045 0.000638571 0.000638571 0.000600830 0.000029277 0.000029277
 0.000068914 0.000021892 0.004461481
     111
 0.000003532 0.000003532 0.000007161 0.000832582 0.000832582 0.000651270
 0.000157496 0.000157496 0.000055915 0.001017666 0.000772808 0.000772808
 0.000125056 0.000125056 0.000307334 0.000026479 0.000026479 0.000199422
 0.000008503 0.000044373 0.000044373 0.000034543 0.000036952 0.003936473
 0.004218695 0.000522814 0.000522814 0.000484659 0.000038860 0.000038860
 0.000072251 0.000019345 0.003687349
     112
 0.000004428 0.000004428 0.000007243 0.000722536 0.000722536 0.000565170
 0.000133646 0.000133646 0.000064269 0.000790912 0.000612902 0.000612902
 0.000141951 0.000141951 0.000342641 0.000059789 0.000059789 0.000225494
 0.000004592 0.000040703 0.000040703 0.000040690 0.000041916 0.003141447
 0.003500582 0.000418359 0.000418359 0.000381320 0.000049916 0.000049916
 0.000073838 0.000016051 0.002953568
     113
 0.000005357 0.000005357 0.000007115 0.000620815 0.000620815 0.000488126
 0.000108780 0.000108780 0.000072518 0.000596952 0.000490651 0.000490651
 0.000154904 0.000154904 0.000373063 0.000099308 0.000099308 0.000250431
 0.000003909 0.000039878 0.000039878 0.000046152 0.000046329 0.002425284
 0.002869407 0.000327997 0.000327997 0.000293029 0.000061857 0.000061857
 0.000074597 0.000012658 0.002277932
     114
 0.000006278 0.000006278 0.000006838 0.000421116 0.000532339 0.000532339
 0.000085148 0.000085148 0.000439351 0.000080532 0.000403855 0.000403855
 0.000162707 0.000162707 0.000398245 0.000142853 0.000142853 0.000274223
 0.000005886 0.000042060 0.000042060 0.000050539 0.000050147 0.001801248
 0.002335996 0.000253667 0.000253667 0.000220897 0.000073845 0.000073845
 0.000075648 0.000009898 0.001673964
     115
 0.000007148 0.000007148 0.000006490 0.000365391 0.000460579 0.000460579
 0.000064223 0.000064223 0.000318287 0.000088283 0.000348921 0.000348921
 0.000164952 0.000164952 0.000418723 0.000187638 0.000187638 0.000297034
 0.000009732 0.000047230 0.000047230 0.000053544 0.000053420 0.001276474
 0.001904159 0.000196425 0.000196425 0.000164987 0.000084878 0.000084878
 0.000078078 0.000008537 0.001150673
     116
 0.000007929 0.000007928 0.000006145 0.000322450 0.000407342 0.000407342
 0.000046837 0.000046837 0.000230869 0.000095924 0.000321087 0.000321087
 0.000162243 0.000162243 0.000435979 0.000230518 0.000230518 0.000319165
 0.000014563 0.000055162 0.000055162 0.000054978 0.000056269 0.000852279
 0.001571110 0.000156453 0.000156453 0.000124439 0.000093930 0.000093930
 0.000082725 0.000009331 0.000712588
     117
 0.000008585 0.000008585 0.000005864 0.000293653 0.000372843 0.000372843
 0.000033337 0.000033337 0.000172005 0.000103917 0.000314760 0.000314760
 0.000156104 0.000156104 0.000452191 0.000268308 0.000268308 0.000340996
 0.000019530 0.000065419 0.000065419 0.000054793 0.000058868 0.000524818
 0.001328424 0.000133076 0.000133076 0.000097640 0.000100104 0.000100104
 0.000090030 0.000012980 0.000360056
     118
 0.000009096 0.000009096 0.000005687 0.000279611 0.000355960 0.000355960
 0.000023722 0.000023722 0.000135582 0.000323997 0.000323997 0.000113259
 0.000148562 0.000148562 0.000469610 0.000298176 0.000298176 0.000362940
 0.000023932 0.000077351 0.000077351 0.000053093 0.000061417 0.000286021
 0.001163443 0.000124818 0.000124818 0.000082436 0.000102800 0.000102800
 0.000099976 0.000020066 0.000089747
     119
 0.000009453 0.000009453 0.000005626 0.000279679 0.000354573 0.000354573
 0.000017739 0.000017739 0.000115598 0.000343046 0.000343046 0.000126031
 0.000141567 0.000141567 0.000489432 0.000318064 0.000318064 0.000385398
 0.000027293 0.000090114 0.000090114 0.000050122 0.000064123 0.000124685
 0.001060938 0.000129480 0.000129480 0.000076352 0.000101851 0.000101851
 0.000112120 0.000030986-0.000104684
     120
 0.000009667 0.000009667 0.000005670 0.000291813 0.000365915 0.000365916
 0.000014968 0.000014968 0.000106921 0.000366797 0.000366797 0.000146644
 0.000509946 0.000136468 0.000136467 0.000327050 0.000327050 0.000408736
 0.000029407 0.000102707 0.000102707 0.000046244 0.000067178 0.000027626
 0.001004785 0.000144270 0.000144270 0.000076824 0.000097586 0.000097587
 0.000125693 0.000045875-0.000231834
     121
 0.000009771 0.000009771 0.000005784 0.000312817 0.000386863 0.000386863
 0.000014880 0.000014880 0.000105602 0.000391054 0.000391055 0.000184023
 0.000523868 0.000133725 0.000133725 0.000325550 0.000325550 0.000433290
 0.000030329 0.000114045 0.000114045 0.000041907 0.000070730-0.000019219
 0.000979444 0.000166009 0.000166009 0.000081401 0.000090782 0.000090783
 0.000139725 0.000064545-0.000301763
     122
 0.000009815 0.000009815 0.000005921 0.000338826 0.000414159 0.000414159
 0.000016882 0.000016882 0.000108848 0.000412650 0.000412650 0.000251746
 0.000517914 0.000132928 0.000132928 0.000315239 0.000315239 0.000459384
 0.000030340 0.000123065 0.000123065 0.000037586 0.000074862-0.000029806
 0.000971125 0.000191387 0.000191387 0.000082512 0.000082512 0.000087915
 0.000153195 0.000086435-0.000325213
     123
 0.000009862 0.000009862 0.000006031 0.000365835 0.000444570 0.000444570
 0.000020362 0.000020362 0.000114849 0.000429424 0.000429425 0.000355831
 0.000484942 0.000133072 0.000133072 0.000298698 0.000298698 0.000487347
 0.000029871 0.000128862 0.000128862 0.000033728 0.000079566-0.000017160
 0.000968578 0.000217234 0.000217234 0.000073925 0.000073925 0.000094598
 0.000165148 0.000110597-0.000312910
     124
 0.000009987 0.000009987 0.000006069 0.000390128 0.000475020 0.000475020
 0.000024718 0.000024718 0.000122562 0.000440136 0.000440136 0.000478300
 0.000440498 0.000132954 0.000132954 0.000278860 0.000278860 0.000517475
 0.000029423 0.000130843 0.000130843 0.000030690 0.000084721 0.000007289
 0.000963512 0.000240747 0.000240747 0.000066036 0.000066035 0.000100144
 0.000174821 0.000135737-0.000274973
     125
 0.000010267 0.000010267 0.000006002 0.000408571 0.000502702 0.000502702
 0.000029386 0.000029386 0.000131517 0.000444312 0.000444312 0.000594277
 0.000131548 0.000131548 0.000405964 0.000258421 0.000258421 0.000549908
 0.000029466 0.000128865 0.000128865 0.000028694 0.000090087 0.000034235
 0.000950682 0.000259614 0.000259614 0.000059586 0.000059586 0.000103718
 0.000181737 0.000160290-0.000220457
     126
 0.000010771 0.000010771 0.000005816 0.000418758 0.000525208 0.000525208
 0.000033857 0.000033857 0.000141654 0.000442066 0.000442066 0.000692919
 0.000128228 0.000128228 0.000387973 0.000239385 0.000239385 0.000584379
 0.000030367 0.000123309 0.000123309 0.000027787 0.000095312 0.000056929
 0.000927707 0.000272038 0.000272038 0.000055012 0.000055011 0.000104924
 0.000185790 0.000182555-0.000157058
     127
 0.000011551 0.000011551 0.000005513 0.000419061 0.000540654 0.000540654
 0.000037693 0.000037693 0.000153165 0.000433904 0.000433904 0.000772135
 0.000122834 0.000122834 0.000384094 0.000619877 0.000222836 0.000222836
 0.000032329 0.000115047 0.000115047 0.000027834 0.000099955 0.000071501
 0.000894677 0.000276677 0.000276677 0.000052500 0.000052500 0.000103735
 0.000200852 0.000187276-0.000090952
     128
 0.000012624 0.000012624 0.000005116 0.000408629 0.000547781 0.000547781
 0.000040535 0.000040535 0.000166335 0.000420546 0.000420546 0.000831160
 0.000115587 0.000115587 0.000390709 0.000654344 0.000208963 0.000208963
 0.000035360 0.000105312 0.000105312 0.000028530 0.000103537 0.000077084
 0.000853649 0.000272514 0.000272514 0.000052147 0.000052147 0.000100427
 0.000213699 0.000186870-0.000026778
     129
 0.000013958 0.000013958 0.000004658 0.000546008 0.000546008 0.000387387
 0.000042111 0.000042111 0.000181347 0.000402793 0.000402793 0.000868892
 0.000106936 0.000106936 0.000405113 0.000684663 0.000197266 0.000197266
 0.000039278 0.000095492 0.000095492 0.000029437 0.000105599 0.000075534
 0.000808082 0.000258678 0.000258678 0.000054181 0.000054181 0.000095505
 0.000219970 0.000185522 0.000032280
     130
 0.000015456 0.000015456 0.000004181 0.000535424 0.000535424 0.000356079
 0.000042245 0.000042245 0.000198053 0.000381450 0.000381450 0.000884393
 0.000097403 0.000097403 0.000425432 0.000707112 0.000186848 0.000186849
 0.000043749 0.000086900 0.000086900 0.000030047 0.000105774 0.000070619
 0.000762286 0.000234193 0.000234193 0.000059276 0.000059275 0.000089649
 0.000219032 0.000184298 0.000084325
     131
 0.000016944 0.000016944 0.000003727 0.000516718 0.000516718 0.000316335
 0.000040873 0.000040873 0.000215734 0.000357296 0.000357296 0.000877623
 0.000087469 0.000087469 0.000450209 0.000718253 0.000048348 0.000176711
 0.000176711 0.000080592 0.000080592 0.000029851 0.000103852 0.000066746
 0.000720902 0.000197959 0.000197959 0.000068635 0.000068635 0.000083676
 0.000210820 0.000184195 0.000128531
     132
 0.000018186 0.000018186 0.000003335 0.000491060 0.000491060 0.000270702
 0.000038062 0.000038061 0.000331098 0.000331098 0.000232952 0.000849937
 0.000077516 0.000077516 0.000478120 0.000052634 0.000715869 0.000165981
 0.000165981 0.000077233 0.000077233 0.000028413 0.000099826 0.000067664
 0.000688464 0.000150678 0.000150679 0.000082121 0.000082121 0.000078517
 0.000195867 0.000185965 0.000164911
     133
 0.000018923 0.000018923 0.000003039 0.000459932 0.000459932 0.000222488
 0.000034017 0.000034016 0.000303634 0.000303634 0.000247634 0.000804250
 0.000067821 0.000067821 0.000507839 0.000056237 0.000699489 0.000154081
 0.000154081 0.000077033 0.000077033 0.000025439 0.000093923 0.000075622
 0.000669063 0.000100941 0.000100941 0.000092193 0.000092192 0.000075201
 0.000175258 0.000189981 0.000194076
     134
 0.000018943 0.000018943 0.000002856 0.000424949 0.000424949 0.000175299
 0.000029088 0.000029088 0.000275723 0.000275723 0.000257496 0.000744857
 0.000058589 0.000058589 0.000058929 0.000538056 0.000670333 0.000140877
 0.000140877 0.000079689 0.000079689 0.000020827 0.000086592 0.000091180
 0.000666126 0.000062819 0.000062819 0.000086306 0.000086306 0.000074829
 0.000150529 0.000196186 0.000217013
     135
 0.000018156 0.000018156 0.000002795 0.000387691 0.000387691 0.000132364
 0.000023754 0.000023754 0.000248242 0.000248242 0.000260739 0.000676949
 0.000049990 0.000049990 0.000060674 0.000630862 0.000126813 0.000126814
 0.000567597 0.000014687 0.000084312 0.000084312 0.000078466 0.000113486
 0.000682321 0.000039326 0.000039326 0.000063399 0.000063399 0.000078544
 0.000123517 0.000204106 0.000234901
     136
 0.000016631 0.000016631 0.000002847 0.000349586 0.000349586 0.000095907
 0.000018592 0.000018592 0.000222124 0.000222124 0.000256696 0.000042198
 0.000042198 0.000605948 0.000061658 0.000112986 0.000112986 0.000584219
 0.000595557 0.000007345 0.000089405 0.000089405 0.000070284 0.000140735
 0.000719574 0.000024958 0.000024958 0.000031250 0.000031250 0.000087466
 0.000096173 0.000212945 0.000248960
     137
 0.000014576 0.000014576 0.000002991 0.000311867 0.000311866 0.000066884
 0.000014235 0.000014235 0.000198323 0.000198323 0.000246114 0.000035411
 0.000035411 0.000536846 0.000062265 0.000100869 0.000100869 0.000533755
 0.000621331-0.000000697 0.000093163 0.000093163 0.000062806 0.000170607
 0.000779160 0.000015356 0.000015356-0.000003339-0.000003339 0.000102619
 0.000070357 0.000221717 0.000260356
     138
 0.000012267 0.000012267 0.000003194 0.000275588 0.000275588 0.000045136
 0.000011333 0.000011333 0.000177756 0.000177756 0.000230987 0.000029839
 0.000029839 0.000473701 0.000063038 0.000091582 0.000091582 0.000482703
-0.000008807 0.000094219 0.000094219 0.000644489 0.000056713 0.000200612
 0.000861814 0.000008578 0.000008578-0.000035985-0.000035985 0.000124824
 0.000047646 0.000229388 0.000270148
     139
 0.000009969 0.000009969 0.000003415 0.000241656 0.000241655 0.000029780
 0.000010506 0.000010506 0.000161222 0.000161222 0.000025677 0.000025677
 0.000214116 0.000419384 0.000064596 0.000085237 0.000085237-0.000016302
 0.000433949 0.000092300 0.000092300 0.000664499 0.000052525 0.000228363
 0.000967814 0.000003954 0.000003954-0.000063798-0.000063798 0.000154590
 0.000029177 0.000235003 0.000279275
     140
 0.000007876 0.000007876 0.000003611 0.000210824 0.000210824 0.000019605
 0.000012316 0.000012316 0.000149315 0.000149315 0.000023052 0.000023053
 0.000375569 0.000198584 0.000067536 0.000081063 0.000081063-0.000022526
 0.000389881 0.000088093 0.000088093 0.000050539 0.000680398 0.000251796
 0.001096999 0.000001316 0.000001316-0.000084802-0.000084802 0.000192009
 0.000015535 0.000237776 0.000288565
     141
 0.000006099 0.000006099 0.000003740 0.000183652 0.000183652 0.000013361
 0.000017236 0.000017236 0.000142346 0.000142346 0.000021967 0.000021967
 0.000342862 0.000187296 0.000072336 0.000078039 0.000078039-0.000026928
 0.000352284 0.000050801 0.000082608 0.000082608 0.000690529 0.000269346
 0.001248742 0.000000609 0.000000609-0.000097747-0.000097747 0.000236665
 0.000006727 0.000237138 0.000298750
     142
 0.000004676 0.000004676 0.000003769 0.000160432 0.000160432 0.000009924
 0.000025626 0.000025626 0.000140293 0.000140293 0.000022257 0.000022257
 0.000321003 0.000182600 0.000079261 0.000075362 0.000075362-0.000029129
 0.000053108 0.000322264 0.000076706 0.000076706 0.000692402 0.000280081
 0.001421908 0.000001708 0.000001708-0.000102067-0.000102067 0.000287581
 0.000002235 0.000232748 0.000310459
     143
 0.000003599 0.000003599 0.000003680 0.000141114 0.000141114 0.000008363
 0.000037709 0.000037709 0.000142792 0.000142792 0.000023581 0.000023581
 0.000309050 0.000186001 0.000088302 0.000072575 0.000072575-0.000028975
 0.000057025 0.000070965 0.000070965 0.000300229 0.000682705 0.000283772
 0.000004328 0.000004328 0.001614851-0.000097891-0.000097891 0.000343225
 0.000001146 0.000224493 0.000324194
     144
 0.000002833 0.000002833 0.000003468 0.000125238 0.000125238 0.000007960
 0.000053559 0.000053559 0.000149167 0.000149167 0.000025455 0.000025455
 0.000305554 0.000197993 0.000099153 0.000069517 0.000069517-0.000026563
 0.000061897 0.000065728 0.000065728 0.000285913 0.000657452 0.000280895
 0.000008018 0.000008018 0.001825449-0.000086039-0.000086039 0.000401554
 0.000002334 0.000212482 0.000340274
     145
 0.000002327 0.000002327 0.000003151 0.000111892 0.000111892 0.000008189
 0.000073109 0.000073109 0.000158480 0.000158480 0.000027337 0.000027337
 0.000308694 0.000218061 0.000111229 0.000066213 0.000066213-0.000022244
 0.000066818 0.000061196 0.000061196 0.000278462 0.000612355 0.000272556
 0.000012201 0.000012201 0.002051090-0.000067998-0.000067998 0.000460123
 0.000004676 0.000197075 0.000358749
     146
 0.000002025 0.000002025 0.000002759 0.000099681 0.000099681 0.000008697
 0.000096205 0.000096205 0.000169609 0.000169609 0.000028745 0.000028745
 0.000316417 0.000123732 0.000244913-0.000016592 0.000062799 0.000062799
 0.000070514 0.000057488 0.000057488 0.000276558 0.000543627 0.000260362
 0.000016281 0.000016281 0.002288310-0.000045846-0.000045846 0.000516224
 0.000007238 0.000178945 0.000379275
     147
 0.000001873 0.000001873 0.000002336 0.000086714 0.000086714 0.000009260
 0.000122719 0.000122719 0.000181314 0.000181314 0.000029384 0.000029384
 0.000326576 0.000135736 0.000276979-0.000010351 0.000059474 0.000059474
 0.000071124 0.000054658 0.000054658 0.000278567 0.000449747 0.000246256
 0.000019761 0.000019761 0.002531517-0.000022119-0.000022119 0.000567064
 0.000009403 0.000159206 0.000400953
     148
 0.000001818 0.000001818 0.000001934 0.000070682 0.000070682 0.000009755
 0.000152665 0.000152665 0.000192304 0.000192304 0.000029246 0.000029246
 0.000337087 0.000146294 0.000313069-0.000004342 0.000056474 0.000056474
 0.000065964 0.000052684 0.000052684 0.000282703 0.000334915 0.000232328
 0.000022351 0.000022351 0.002770006 0.000000395 0.000000395 0.000609952
 0.000010903 0.000139566 0.000422167
     149
 0.000001814 0.000001814 0.000001604 0.000049584 0.000049584 0.000185749
 0.000185749 0.000010124 0.000201317 0.000201317 0.000028611 0.000028611
 0.000346095 0.000154541 0.000352370 0.000000637 0.000054059 0.000054059
 0.000052051 0.000051461 0.000051461 0.000287214 0.000214314 0.000220602
 0.000024009 0.000024009 0.002983114 0.000018940 0.000018940 0.000642505
 0.000011758 0.000122397 0.000440537
     150
 0.000001827 0.000001827 0.000001386 0.000025486 0.000025486 0.000217935
 0.000217935 0.000010347 0.000207248 0.000207248 0.000027940 0.000027940
 0.000352130 0.000159786 0.000390450 0.000003920 0.000052481 0.000052481
 0.000030624 0.000050828 0.000050828 0.000290606 0.000117453 0.000212790
 0.000024876 0.000024876 0.003137195 0.000031150 0.000031150 0.000662843
 0.000012145 0.000110471 0.000453228
     151
 0.000001834 0.000001834 0.000001310 0.000012811 0.000012811 0.000233464
 0.000233464 0.000010421 0.000209319 0.000209319 0.000027658 0.000027658
 0.000354250 0.000161586 0.000408888 0.000005066 0.000051930 0.000051930
 0.000017985 0.000050638 0.000050638 0.000291857 0.000079554 0.000210049
 0.000025137 0.000025137 0.003194458 0.000035412 0.000035412 0.000669762
 0.000012249 0.000106174 0.000457789
     152
 0.000001832 0.000001852 0.000001301 0.000013127 0.000012706 0.000232514
 0.000233400 0.000011123 0.000209134 0.000208904 0.000027283 0.000028145
 0.000353455 0.000161162 0.000404390 0.000005394 0.000050513 0.000052214
 0.000018721 0.000053955 0.000054200 0.000288968 0.000078851 0.000209440
 0.000024823 0.000025253 0.003178264 0.000035871 0.000045242 0.000667698
 0.000012233 0.000106117 0.000456778
     153
 0.000001827 0.000001906 0.000001273 0.000014069 0.000012401 0.000229761
 0.000233210 0.000013142 0.000208581 0.000207668 0.000026170 0.000029595
 0.000351105 0.000159901 0.000391048 0.000006978 0.000047639 0.000053054
 0.000019572 0.000062296 0.000064145 0.000281886 0.000076821 0.000207603
 0.000023889 0.000025567 0.003130722 0.000037224 0.000073783 0.000661559
 0.000012186 0.000105948 0.000453758
     154
 0.000001819 0.000001994 0.000001227 0.000015614 0.000011919 0.000225462
 0.000232891 0.000016248 0.000207663 0.000205636 0.000024359 0.000031984
 0.000347306 0.000157824 0.000369954 0.000010611 0.000044649 0.000054424
 0.000019257 0.000072529 0.000078625 0.000273662 0.000073736 0.000204476
 0.003054760 0.000022365 0.000025990 0.000039401 0.000118376 0.000651494
 0.000012111 0.000105672 0.000448764
     155
 0.000001808 0.000002115 0.000001166 0.000017727 0.000011300 0.000219967
 0.000232443 0.000020133 0.000206383 0.000202849 0.000021914 0.000035268
 0.000342229 0.000154969 0.000343610 0.000016008 0.000041690 0.000056278
 0.000017730 0.000082337 0.000095479 0.000266490 0.000070164 0.000199810
 0.002954682 0.000020299 0.000026396 0.000042294 0.000175150 0.000637745
 0.000012013 0.000105301 0.000441855
     156
 0.000001795 0.000002265 0.000001090 0.000020360 0.000010597 0.000213645
 0.000231862 0.000024488 0.000204748 0.000199362 0.000018925 0.000039391
 0.000336095 0.000151389 0.000315049 0.000038615 0.000022064 0.000058560
 0.000015274 0.000090684 0.000112861 0.000261255 0.000067198 0.000192900
 0.002835520 0.000017757 0.000026649 0.000045764 0.000239662 0.000620628
 0.000011899 0.000104845 0.000433110
     157
 0.000001782 0.000002441 0.000001003 0.000023455 0.000009872 0.000206827
 0.000231146 0.000029052 0.000202765 0.000195240 0.000015502 0.000044284
 0.000329165 0.000147145 0.000286707 0.000035318 0.000027746 0.000061201
 0.000012160 0.000097298 0.000129466 0.000258053 0.000066857 0.000182161
 0.002702410 0.000014819 0.000026630 0.000049656 0.000307500 0.000600518
 0.000011777 0.000104321 0.000422632
     158
 0.000001769 0.000002639 0.000000908 0.000026945 0.000009194 0.000199782
 0.000230288 0.000033641 0.000200444 0.000190560 0.000011775 0.000049869
 0.000321722 0.000142309 0.000260066 0.000031769 0.000032487 0.000064127
 0.000008612 0.000102225 0.000144491 0.000256670 0.000072193 0.000164979
 0.002560125 0.000011577 0.000026250 0.000053810 0.000374722 0.000577833
 0.000011656 0.000103743 0.000410540
     159
 0.000001757 0.000002854 0.000000808 0.000030755 0.000008637 0.000192710
 0.000229280 0.000038146 0.000197797 0.000185405 0.000007892 0.000056064
 0.000314054 0.000136960 0.000235847 0.000027989 0.000036122 0.000067264
 0.000004820 0.000105603 0.000157503 0.000256806 0.000085275 0.000139714
 0.002412806 0.000008137 0.000025458 0.000058071 0.000438115 0.000553009
 0.000011546 0.000103129 0.000396972
     160
 0.000001747 0.000003082 0.000000707 0.000034810 0.000008273 0.000185754
 0.000228112 0.000042520 0.000194839 0.000179862 0.000004012 0.000062785
 0.000306434 0.000131181 0.000214311 0.000024037 0.000038714 0.000070538
 0.000000955 0.000107592 0.000168308 0.000258168 0.000103026 0.000109838
 0.002263847 0.000004606 0.000024247 0.000062300 0.000495269 0.000526489
 0.000011459 0.000102492 0.000382082
     161
 0.000001739 0.000003316 0.000000606 0.000039031 0.000008171 0.000179014
 0.000226769 0.000046764 0.000191584 0.000174016 0.000000305 0.000069957
 0.000299108 0.000125059 0.000195472 0.000019990 0.000040425 0.000073879
-0.000002830 0.000108360 0.000176865 0.000260494 0.000119145 0.000082013
 0.002115912 0.000001098 0.000022644 0.000066379 0.000544547 0.000498707
 0.000011403 0.000101843 0.000366035
     162
 0.000001735 0.000003552 0.000000511 0.000043345 0.000008390 0.000172560
 0.000225233 0.000050904 0.000188051 0.000167955-0.000003058 0.000077515
 0.000292273 0.000118679 0.000179216 0.000015941 0.000041451 0.000077223
 0.000108086-0.000006395 0.000183220 0.000263547 0.000130735 0.000059452
 0.001971010-0.000002275 0.000020707 0.000070218 0.000584985 0.000470075
 0.000011390 0.000101193 0.000349010
     163
 0.000001733 0.000003785 0.000000424 0.000047680 0.000008979 0.000166440
 0.000223481 0.000054982 0.000184259 0.000161758-0.000005904 0.000085412
 0.000286072 0.000112126 0.000165368 0.000011984 0.000041990 0.000080515
 0.000106967-0.000009613 0.000267113 0.000187475 0.000138390 0.000041821
 0.001830595-0.000005406 0.000018518 0.000073749 0.000616167 0.000440976
 0.000011429 0.000100543 0.000331191
     164
 0.000001735 0.000004008 0.000000347 0.000051975 0.000009971 0.000160692
 0.000221484 0.000059046 0.000180232 0.000155501-0.000008067 0.000093629
 0.000280576 0.000105480 0.000153718 0.000008217 0.000042231 0.000083706
 0.000105221-0.000012375 0.000270996 0.000189762 0.000143481 0.000027962
 0.001695672-0.000008197 0.000016171 0.000076931 0.000638103 0.000411759
 0.000011528 0.000099891 0.000312770
     165
 0.000001739 0.000004218 0.000000283 0.000056179 0.000011383 0.000155348
 0.000219210 0.000063135 0.000175991 0.000149250-0.000009392 0.000102176
 0.000275784 0.000098818 0.000144038 0.000004729 0.000042341 0.000086756
 0.000103091-0.000014587 0.000275004 0.000190235 0.000147054 0.000016983
 0.001566890-0.000010561 0.000013772 0.000079746 0.000651118 0.000382733
 0.000011693 0.000099228 0.000293942
     166
 0.000001746 0.000004408 0.000000234 0.000060252 0.000013215 0.000150434
 0.000216619 0.000067277 0.000171562 0.000143062-0.000009745 0.000111097
 0.000271617 0.000092209 0.000136089 0.000001601 0.000042471 0.000089632
 0.000100831-0.000016176 0.000278957 0.000189059 0.000149745 0.000008344
 0.001444626-0.000012428 0.000011427 0.000082192 0.000655759 0.000354172
 0.000011929 0.000098539 0.000274902
     167
 0.000001753 0.000004576 0.000000199 0.000064167 0.000015446 0.000145980
 0.000213669 0.000071483 0.000166972 0.000136985-0.000009010 0.000120469
 0.000267926 0.000085716 0.000129632-0.000001097 0.000042741 0.000092304
 0.000098702-0.000017088 0.000282676 0.000186405 0.000151908 0.000001733
 0.001329040-0.000013744 0.000009242 0.000084281 0.000652716 0.000326311
 0.000012240 0.000097801 0.000255843
     168
 0.000001760 0.000004715 0.000000181 0.000067913 0.000018038 0.000142012
 0.000210311 0.000075741 0.000162246 0.000131058-0.000007104 0.000130395
 0.000264503 0.000079396 0.000124428-0.000003313 0.000094747 0.000043246
 0.000096960-0.000017295 0.000285997 0.000182445 0.000153722-0.000003043
 0.001220136-0.000014476 0.000007315 0.000086033 0.000642768 0.000299346
 0.000012625 0.000096985 0.000236951
     169
 0.000001766 0.000004824 0.000000178 0.000071492 0.000020937 0.000138563
 0.000206496 0.000080014 0.000157411 0.000125309-0.000003974 0.000140991
 0.000261097 0.000120246 0.000073298-0.000005009 0.000096940 0.000044048
 0.000095835-0.000016790 0.000288766 0.000155257 0.000177351-0.000006117
 0.001117797-0.000014613 0.000005734 0.000087471 0.000626733 0.000273444
 0.000013084 0.000096056 0.000218408
     170
 0.000001767 0.000004898 0.000000189 0.000074916 0.000135666 0.000024074
 0.000202173 0.000084238 0.000152494 0.000119759 0.000000393 0.000152358
 0.000257447 0.000116866 0.000067464-0.000006165 0.000098860 0.000045176
 0.000095526-0.000015589 0.000290849 0.000156517 0.000171291-0.000007610
 0.001021817-0.000014163 0.000004576 0.000088620 0.000605432 0.000248737
 0.000013612 0.000094974 0.000200380
     171
 0.000001763 0.000004935 0.000000213 0.000078213 0.000133358 0.000027368
 0.000197290 0.000088320 0.000147521 0.000114422 0.000164563 0.000005969
 0.000253316 0.000114084 0.000061927-0.000006779 0.000100485 0.000046627
 0.000096179-0.000013731 0.000292136 0.000157469 0.000164427-0.000007642
 0.000931931-0.000013158 0.000003901 0.000089501 0.000579668 0.000225331
 0.000014201 0.000093697 0.000183024
     172
 0.000001752 0.000004933 0.000000248 0.000081414 0.000131682 0.000030730
 0.000092139 0.000191799 0.000142516 0.000109306 0.000177603 0.000012683
 0.000248522 0.000111715 0.000056715-0.000006866 0.000101790 0.000048368
 0.000097887-0.000011275 0.000158054 0.000292548 0.000156913-0.000006348
 0.000847835-0.000011649 0.000003757 0.000090131 0.000550202 0.000203306
 0.000014843 0.000092179 0.000166479
     173
 0.000001730 0.000004889 0.000000290 0.000084557 0.000130682 0.000034069
 0.000095546 0.000185657 0.000137500 0.000104415 0.000191388 0.000020417
 0.000242974 0.000109595 0.000051848-0.000006456 0.000102747 0.000050338
 0.000100677-0.000008299 0.000158207 0.000292033 0.000148892-0.000003884
 0.000769205-0.000009703 0.000004172 0.000090519 0.000517741 0.000182719
 0.000015526 0.000090378 0.000150869
     174
 0.000001696 0.000004803 0.000000337 0.000087683 0.000130405 0.000037291
 0.000098367 0.000178830 0.000132494 0.000099753 0.000205729 0.000029011
 0.000236676 0.000107582 0.000047341-0.000005594 0.000103325 0.000052456
 0.000104512-0.000004897 0.000157858 0.000290572 0.000140497-0.000000422
 0.000695709-0.000007403 0.000005160 0.000090671 0.000482934 0.000163605
 0.000016237 0.000088252 0.000136296
     175
 0.000001649 0.000004674 0.000000386 0.000090827 0.000130895 0.000100414
 0.000040306 0.000171293 0.000127516 0.000095319 0.000220351 0.000038261
 0.000229737 0.000105561 0.000043201-0.000004334 0.000103490 0.000054622
 0.000109291-0.000001173 0.000156944 0.000288173 0.000131848 0.000003849
 0.000627026-0.000004847 0.000006716 0.000090588 0.000446360 0.000145981
 0.000016959 0.000085765 0.000122845
     176
 0.000001585 0.000004501 0.000000433 0.000094022 0.000132192 0.000101489
 0.000043033 0.000163034 0.000122580 0.000091116 0.000234913 0.000047927
 0.000222341 0.000103442 0.000039432-0.000002742 0.000103204 0.000056725
 0.000114863 0.000002758 0.000155409 0.000284871 0.000123051 0.000008724
 0.000562848-0.000002137 0.000008821 0.000090265 0.000408532 0.000017676
 0.000129843 0.000082886 0.000110579
     177
 0.000001504 0.000004285 0.000000473 0.000097294 0.000134318 0.000101403
 0.000045396 0.000154057 0.000117698 0.000087145 0.000249041 0.000057741
 0.000214722 0.000101156 0.000036032-0.000000887 0.000102431 0.000058652
 0.000121028 0.000006778 0.000153211 0.000280718 0.000114196 0.000013992
 0.000502893 0.000000619 0.000011442 0.000089700 0.000369898 0.000018369
 0.000115173 0.000079596 0.000099540
     178
 0.000001405 0.000004027 0.000000505 0.000100657 0.000137263 0.000099993
 0.000047335 0.000144382 0.000112880 0.000083409 0.000262367 0.000067414
 0.000207131 0.000098658 0.000032992 0.000001160 0.000101133 0.000060291
 0.000127558 0.000010769 0.000150323 0.000275782 0.000105360 0.000019439
 0.000446907 0.000003311 0.000014532 0.000088891 0.000330844 0.000019020
 0.000101931 0.000075884 0.000089753
     179
 0.000001287 0.000003727 0.000000523 0.000104119 0.000140973 0.000097150
 0.000048801 0.000134049 0.000108132 0.000079909 0.000274554 0.000076650
 0.000199808 0.000095922 0.000030302 0.000003327 0.000099276 0.000061537
 0.000134203 0.000014618 0.000146732 0.000270143 0.000096605 0.000024852
 0.000394664 0.000005836 0.000018033 0.000087841 0.000291696 0.000019609
 0.000090065 0.000071753 0.000081221
     180
 0.000001149 0.000003389 0.000000526 0.000107675 0.000145320 0.000092845
 0.000049760 0.000123119 0.000103454 0.000076649 0.000285323 0.000085159
 0.000192959 0.000092934 0.000027945 0.000005544 0.000096836 0.000062302
 0.000140712 0.000018219 0.000142443 0.000263885 0.000087978 0.000030029
 0.000345969 0.000008096 0.000021878 0.000086561 0.000252731 0.000020120
 0.000079503 0.000067217 0.000073930
     181
 0.000000992 0.000003014 0.000000511 0.000111315 0.000150093 0.000087154
 0.000050191 0.000111678 0.000098845 0.000073631 0.000294456 0.000092676
 0.000186748 0.000089685 0.000025905 0.000007750 0.000093795 0.000062510
 0.000146840 0.000021477 0.000137473 0.000257099 0.000079517 0.000034783
 0.000300656 0.000010005 0.000025996 0.000085072 0.000214180 0.000020535
 0.000070159 0.000062304 0.000067851
     182
 0.000000817 0.000002605 0.000000476 0.000115020 0.000154984 0.000080275
 0.000050090 0.000099838 0.000094292 0.000070854 0.000301809 0.000098969
 0.000181288 0.000086173 0.000024159 0.000009888 0.000090150 0.000062107
 0.000152365 0.000131855 0.000024313 0.000249879 0.000071248 0.000038947
 0.000258577 0.000011490 0.000030307 0.000083404 0.000176240 0.000020839
 0.000061933 0.000057056 0.000062938
     183
 0.000000625 0.000002166 0.000000419 0.000118769 0.000159605 0.000072520
 0.000049466 0.000087744 0.000089768 0.000068315 0.000307307 0.000103850
 0.000176640 0.000082395 0.000022686 0.000011912 0.000085914 0.000061063
 0.000157093 0.000125632 0.000026664 0.000242321 0.000063192 0.000042380
 0.000219604 0.000012495 0.000034733 0.000081599 0.000139074 0.000021020
 0.000054711 0.000051526 0.000059135
     184
 0.000000418 0.000001702 0.000000340 0.000122536 0.000163528 0.000064275
 0.000048339 0.000075582 0.000085223 0.000066009 0.000107190 0.000310937
 0.000172825 0.000078345 0.000021459 0.000013784 0.000081115 0.000059369
 0.000160871 0.000118858 0.000028486 0.000234528 0.000055366 0.000044968
 0.000183620 0.000012982 0.000039195 0.000079709 0.000102826 0.000021069
 0.000048372 0.000045781 0.000056373
     185
 0.000000198 0.000001217 0.000000238 0.000126295 0.000166345 0.000055949
 0.000046745 0.000063595 0.000080564 0.000063928 0.000108914 0.000312747
 0.000169820 0.000074021 0.000020456 0.000015477 0.000075804 0.000057036
 0.000163590 0.000111599 0.000029755 0.000226609 0.000047785 0.000046633
 0.000150508 0.000012934 0.000043615 0.000077794 0.000067623 0.000020979
 0.000042787 0.000039895 0.000054575
     186
-0.000000032 0.000000715 0.000000115 0.000130020 0.000167735 0.000047906
 0.000044728 0.000052095 0.000075646 0.000062061 0.000109004 0.000312835
 0.000167572 0.000069421 0.000019649 0.000016974 0.000070045 0.000054101
 0.000165189 0.000103928 0.000030466 0.000218685 0.000040469 0.000120148
 0.000047327 0.000012350 0.000047920 0.000075919 0.000033583 0.000020749
 0.000037827 0.000033953 0.000053655
     187
-0.000000268 0.000000203-0.000000027 0.000133685 0.000167508 0.000040421
 0.000042341 0.000041471 0.000070253 0.000060393 0.000107499 0.000311343
 0.000166001 0.000064557 0.000019014 0.000018267 0.000063925 0.000050616
 0.000165658 0.000095926 0.000030635 0.000210887 0.000033444 0.000092404
 0.000047038 0.000011252 0.000052045 0.000074148 0.000000820 0.000020383
 0.000033366 0.000028042 0.000053520
     188
-0.000000507-0.000000313-0.000000188 0.000137267 0.000165627 0.000033662
 0.000039646 0.000032159 0.000064132 0.000058911 0.000104481 0.000308450
 0.000165012 0.000059451 0.000018527 0.000019357 0.000057541 0.000046655
 0.000165034 0.000087682 0.000030293 0.000203368 0.000067121 0.000026739
 0.000045788 0.000009680 0.000055928 0.000072544-0.000030551 0.000019887
 0.000029286 0.000022255 0.000054072
     189
-0.000000745-0.000000828-0.000000364 0.000140741 0.000162190 0.000027695
 0.000036710 0.000024547 0.000057598 0.000057081 0.000100078 0.000304368
 0.000164499 0.000018164 0.000054147 0.000020252 0.000051007 0.000042301
 0.000163399 0.000079294 0.000029491 0.000196300 0.000044111 0.000020397
 0.000043630 0.000007691 0.000059519 0.000071161-0.000060414 0.000019275
 0.000025482 0.000016685 0.000055209
     190
-0.000000979-0.000001334-0.000000551 0.000144086 0.000157403 0.000022512
 0.000033604 0.000018812 0.000056439 0.000049107 0.000094447 0.000299332
 0.000164352 0.000017901 0.000048709 0.000020969 0.000044445 0.000037654
 0.000160878 0.000070867 0.000028293 0.000189891 0.000023147 0.000014465
 0.000040647 0.000005355 0.000062773 0.000070041 0.000018564-0.000088643
 0.000021867 0.000011420 0.000056823
     191
-0.000001203-0.000001825-0.000000747 0.000147277 0.000151547 0.000018062
 0.000030401 0.000014812 0.000055419 0.000040532 0.000087772 0.000293592
 0.000164463 0.000017719 0.000043223 0.000021526 0.000037980 0.000032818
 0.000157626 0.000062511 0.000026773 0.000184389 0.000003948 0.000009001
 0.000036945 0.000002757 0.000065657 0.000069214 0.000017775-0.000115108
 0.000018374 0.000006547 0.000058805
     192
-0.000001415-0.000002294-0.000000947 0.000150289 0.000144940 0.000014272
 0.000027175 0.000012146 0.000054525 0.000031926 0.000080259 0.000287412
 0.000164735 0.000017599 0.000037796 0.000021946 0.000031743 0.000027903
 0.000153827 0.000054342 0.000025017 0.000180105-0.000013840 0.000004067
 0.000032655-0.000000010 0.000068147 0.000068695 0.000016933-0.000139669
 0.000014957 0.000002141 0.000061045
     193
[...]
 0.000034713 0.000029709 0.000069187 0.000158601 0.000141299 0.000175631
 0.000121278 0.000017260 0.000021849 0.000139640 0.000099364 0.000054262
 0.000158206 0.000090634 0.000046217 0.000182335 0.000149027 0.000094206
 0.000097283 0.000016699 0.000093188 0.000094483 0.000069244 0.000089328
 0.000047920 0.000050235 0.000090757
     205
 0.000001226 0.000001373 0.000000981 0.000288836 0.000171024 0.000040861
 0.000035525 0.000028840 0.000069041 0.000162257 0.000139071 0.000175530
 0.000121171 0.000017377 0.000021950 0.000138034 0.000096414 0.000058930
 0.000156004 0.000093104 0.000046285 0.000181118 0.000149514 0.000093827
 0.000098829 0.000017774 0.000092165 0.000094365 0.000069116 0.000089833
 0.000047659 0.000050746 0.000090749
     206
 0.000001216 0.000001397 0.000001009 0.000288954 0.000170966 0.000041015
 0.000036341 0.000027972 0.000068863 0.000166119 0.000137019 0.000175397
 0.000121023 0.000017523 0.000022085 0.000136342 0.000094141 0.000064157
 0.000153502 0.000094821 0.000046370 0.000180050 0.000149655 0.000093400
 0.000100761 0.000019023 0.000090988 0.000094226 0.000068959 0.000090471
 0.000047433 0.000051288 0.000090746
     207
 0.000001211 0.000001422 0.000001040 0.000289134 0.000170891 0.000041186
 0.000037165 0.000027113 0.000068679 0.000170148 0.000135146 0.000175230
 0.000120830 0.000017696 0.000022253 0.000135055 0.000092295 0.000068898
 0.000151254 0.000096036 0.000046473 0.000179214 0.000149415 0.000092925
 0.000103036 0.000020382 0.000089724 0.000094069 0.000068778 0.000091236
 0.000047244 0.000051856 0.000090751
     208
 0.000001212 0.000001449 0.000001075 0.000289386 0.000170797 0.000041370
 0.000038001 0.000026269 0.000068546 0.000174276 0.000133453 0.000175024
 0.000120587 0.000017897 0.000022451 0.000134184 0.000090725 0.000072984
 0.000149415 0.000096904 0.000046592 0.000178643 0.000148826 0.000092405
 0.000105596 0.000021795 0.000088432 0.000093900 0.000068577 0.000092116
 0.000047093 0.000052447 0.000090768
     209
 0.000001218 0.000001477 0.000001112 0.000289716 0.000170682 0.000041565
 0.000038852 0.000025446 0.000068556 0.000178400 0.000131940 0.000174777
 0.000120292 0.000018122 0.000022676 0.000133660 0.000089341 0.000076485
 0.000147982 0.000097521 0.000046728 0.000178341 0.000147954 0.000091843
 0.000108373 0.000023218 0.000087157 0.000093722 0.000068358 0.000093101
 0.000046983 0.000053059 0.000090798
     210
 0.000001230 0.000001506 0.000001153 0.000290129 0.000170543 0.000041768
 0.000039723 0.000024654 0.000068852 0.000182360 0.000130610 0.000174485
 0.000119940 0.000018372 0.000022921 0.000133417 0.000088085 0.000079517
 0.000146903 0.000097950 0.000046881 0.000178289 0.000146885 0.000091241
 0.000111302 0.000024619 0.000085933 0.000093540 0.000068125 0.000094178
 0.000046917 0.000053689 0.000090844
     211
 0.000001248 0.000001536 0.000001196 0.000290630 0.000170379 0.000041980
 0.000040615 0.000023902 0.000069640 0.000185934 0.000129460 0.000174142
 0.000119530 0.000018643 0.000023180 0.000133405 0.000086925 0.000082183
 0.000146124 0.000098234 0.000047048 0.000178462 0.000145708 0.000090603
 0.000114327 0.000025977 0.000084782 0.000093358 0.000067882 0.000095332
 0.000046899 0.000054335 0.000090908
     212
 0.000001272 0.000001568 0.000001241 0.000291219 0.000170187 0.000042198
 0.000041532 0.000023202 0.000071189 0.000188834 0.000128489 0.000173746
 0.000119060 0.000018936 0.000133586 0.000023448 0.000084565 0.000085838
 0.000145598 0.000098403 0.000047231 0.000178823 0.000144503 0.000089931
 0.000117400 0.000027278 0.000083717 0.000093181 0.000067633 0.000096547
 0.000046933 0.000054995 0.000090990
     213
 0.000001302 0.000001601 0.000001289 0.000291897 0.000169963 0.000042424
 0.000042478 0.000022573 0.000073801 0.000190731 0.000127696 0.000173292
 0.000118529 0.000019248 0.000133931 0.000023719 0.000086728 0.000084810
 0.000145288 0.000098476 0.000047428 0.000179336 0.000143340 0.000089229
 0.000120490 0.000028518 0.000082744 0.000093013 0.000067379 0.000097805
 0.000047023 0.000055666 0.000091093
     214
 0.000001338 0.000001635 0.000001339 0.000292665 0.000169706 0.000042657
 0.000043454 0.000022042 0.000077738 0.000191326 0.000127074 0.000172775
 0.000117939 0.000019579 0.000134418 0.000023989 0.000088719 0.000083835
 0.000145169 0.000098469 0.000047639 0.000179967 0.000142277 0.000088502
 0.000123574 0.000029694 0.000081863 0.000092859 0.000067125 0.000099088
 0.000047174 0.000056347 0.000091217
     215
 0.000001379 0.000001671 0.000001392 0.000293521 0.000169413 0.000042898
 0.000044463 0.000021650 0.000083121 0.000190448 0.000126619 0.000172192
 0.000117290 0.000019926 0.000135031 0.000024253 0.000090572 0.000082907
 0.000145219 0.000098393 0.000047863 0.000180683 0.000141356 0.000087752
 0.000126639 0.000030807 0.000081072 0.000092722 0.000066872 0.000100377
 0.000047391 0.000057036 0.000091363
     216
 0.000001426 0.000001707 0.000001446 0.000294462 0.000169082 0.000043146
 0.000045507 0.000021456 0.000089832 0.000188148 0.000126322 0.000171538
 0.000116588 0.000020289 0.000135753 0.000024510 0.000092315 0.000082023
 0.000145426 0.000098257 0.000048101 0.000181460 0.000140605 0.000086985
 0.000129680 0.000031862 0.000080366 0.000092606 0.000066624 0.000101653
 0.000047677 0.000057731 0.000091530
     217
 0.000001478 0.000001502 0.000001744 0.000295485 0.000168711 0.000043403
 0.000046588 0.000021546 0.000097493 0.000184704 0.000126176 0.000170811
 0.000115837 0.000020667 0.000136574 0.000024758 0.000093966 0.000081182
 0.000145780 0.000098066 0.000048351 0.000182278 0.000140038 0.000086205
 0.000132698 0.000032861 0.000079739 0.000092516 0.000066382 0.000102895
 0.000048037 0.000058430 0.000091720
     218
 0.000001536 0.000001560 0.000001782 0.000296587 0.000168297 0.000043668
 0.000047708 0.000022044 0.000105547 0.000180540 0.000126168 0.000170007
 0.000115042 0.000021057 0.000137481 0.000024996 0.000095540 0.000080381
 0.000146277 0.000097826 0.000048612 0.000183122 0.000139660 0.000085418
 0.000135697 0.000033808 0.000079185 0.000092454 0.000066149 0.000104084
 0.000048474 0.000059132 0.000091931
     219
 0.000001598 0.000001619 0.000001821 0.000297762 0.000167839 0.000043941
 0.000048866 0.000023119 0.000113374 0.000176094 0.000126289 0.000169123
 0.000114213 0.000021460 0.000138463 0.000025225 0.000097048 0.000079620
 0.000146913 0.000097541 0.000048885 0.000183985 0.000139465 0.000084627
 0.000138682 0.000034708 0.000092425 0.000078698 0.000065926 0.000105200
 0.000048990 0.000059835 0.000092163
     220
 0.000001665 0.000001680 0.000001860 0.000299007 0.000167337 0.000044223
 0.000050065 0.000024992 0.000120389 0.000171718 0.000126525 0.000168159
 0.000113356 0.000021872 0.000139510 0.000025444 0.000098497 0.000078898
 0.000147690 0.000097213 0.000049168 0.000184861 0.000139443 0.000083838
 0.000141661 0.000035563 0.000092433 0.000078271 0.000065714 0.000106226
 0.000049585 0.000060538 0.000092415
     221
 0.000001735 0.000001741 0.000001900 0.000300316 0.000166788 0.000044512
 0.000051304 0.000027925 0.000126085 0.000167644 0.000126866 0.000167112
 0.000112480 0.000022294 0.000140612 0.000025654 0.000099893 0.000078214
 0.000148607 0.000096847 0.000049460 0.000185747 0.000139579 0.000083055
 0.000144643 0.000036375 0.000092480 0.000077899 0.000065515 0.000107142
 0.000050260 0.000061239 0.000092686
     222
 0.000001810 0.000001804 0.000001941 0.000301685 0.000166193 0.000044808
 0.000052583 0.000032191 0.000130058 0.000163990 0.000127298 0.000165980
 0.000111594 0.000141756 0.000022724 0.000025857 0.000101240 0.000077568
 0.000149669 0.000096443 0.000049761 0.000186639 0.000139856 0.000082285
 0.000147636 0.000037148 0.000092571 0.000077576 0.000107933 0.000065329
 0.000051012 0.000061937 0.000092976
     223
 0.000001887 0.000001867 0.000001982 0.000303109 0.000165552 0.000045110
 0.000053901 0.000038006 0.000132038 0.000160794 0.000127812 0.000164764
 0.000110707 0.000142932 0.000023160 0.000026054 0.000102541 0.000076959
 0.000150878 0.000096004 0.000050069 0.000187534 0.000140257 0.000081531
 0.000150646 0.000037882 0.000092710 0.000077298 0.000108583 0.000065157
 0.000051838 0.000062629 0.000093282
     224
 0.000001968 0.000001931 0.000002023 0.000304583 0.000164865 0.000045416
 0.000055257 0.000045443 0.000131946 0.000158050 0.000128397 0.000163462
 0.000109828 0.000144126 0.000023602 0.000026246 0.000103796 0.000076386
 0.000152239 0.000095533 0.000050384 0.000188431 0.000140765 0.000080798
 0.000153681 0.000038579 0.000092901 0.000077060 0.000109079 0.000064999
 0.000052732 0.000063316 0.000093604
     225
 0.000002051 0.000001995 0.000002064 0.000306103 0.000164132 0.000045724
 0.000056650 0.000054355 0.000129946 0.000155721 0.000129044 0.000162074
 0.000108963 0.000145326 0.000024049 0.000026433 0.000105006 0.000075850
 0.000153756 0.000095031 0.000050704 0.000189324 0.000141363 0.000080091
 0.000156745 0.000039239 0.000093149 0.000076858 0.000109407 0.000064856
 0.000053690 0.000063995 0.000093940
     226
 0.000002135 0.000002059 0.000002105 0.000307666 0.000163356 0.000046031
 0.000058077 0.000064381 0.000126429 0.000153764 0.000129748 0.000160600
 0.000108120 0.000146515 0.000024498 0.000026617 0.000106173 0.000075349
 0.000155431 0.000094500 0.000051027 0.000190212 0.000142035 0.000079413
 0.000159844 0.000039863 0.000093458 0.000076689 0.000109557 0.000064726
 0.000054703 0.000064665 0.000094287
     227
 0.000002222 0.000002123 0.000002146 0.000309269 0.000162538 0.000046336
 0.000059534 0.000075019 0.000121925 0.000152133 0.000130502 0.000159040
 0.000107306 0.000147678 0.000024949 0.000026799 0.000107295 0.000074883
 0.000157269 0.000093943 0.000051353 0.000191089 0.000142765 0.000078769
 0.000162979 0.000040451 0.000093836 0.000076550 0.000109517 0.000064611
 0.000055763 0.000065324 0.000094644
     228
 0.000002309 0.000002187 0.000002187 0.000310910 0.000161680 0.000046635
 0.000061020 0.000085759 0.000116970 0.000150784 0.000131304 0.000157395
 0.000106526 0.000148798 0.000025401 0.000026977 0.000108373 0.000074452
 0.000159270 0.000093360 0.000051680 0.000191954 0.000143539 0.000078161
 0.000166151 0.000041004 0.000094288 0.000076437 0.000109279 0.000064509
 0.000056861 0.000065971 0.000095010
     229
 0.000002397 0.000002250 0.000002227 0.000312588 0.000160785 0.000046928
 0.000062529 0.000096182 0.000112001 0.000149676 0.000132151 0.000155666
 0.000105786 0.000149856 0.000025852 0.000027153 0.000109407 0.000074055
 0.000161436 0.000092756 0.000052006 0.000192802 0.000144345 0.000077593
 0.000169358 0.000041521 0.000094824 0.000076350 0.000108833 0.000064419
 0.000057987 0.000066604 0.000095381
     230
 0.000002484 0.000002312 0.000002266 0.000314303 0.000159858 0.000047211
 0.000064057 0.000106007 0.000107315 0.000148774 0.000133045 0.000153854
 0.000105091 0.000150832 0.000026302 0.000027326 0.000110397 0.000073692
 0.000163767 0.000092133 0.000052330 0.000193633 0.000145170 0.000077066
 0.000172596 0.000042003 0.000095454 0.000076284 0.000108171 0.000064342
 0.000059130 0.000067223 0.000095756
     231
 0.000002571 0.000002373 0.000002305 0.000316057 0.000158901 0.000047484
 0.000065599 0.000115077 0.000103076 0.000148047 0.000133986 0.000151959
 0.000104444 0.000151704 0.000026749 0.000027496 0.000111342 0.000073361
 0.000166259 0.000091493 0.000052650 0.000194446 0.000146003 0.000076582
 0.000175856 0.000042450 0.000096191 0.000076238 0.000107285 0.000064276
 0.000060282 0.000067825 0.000096133
     232
 0.000002658 0.000002433 0.000002343 0.000317852 0.000157919 0.000047747
 0.000067149 0.000123328 0.000099349 0.000147469 0.000134978 0.000149982
 0.000103850 0.000152449 0.000027192 0.000027660 0.000112243 0.000073062
 0.000168912 0.000090840 0.000052964 0.000195240 0.000146833 0.000076142
 0.000179130 0.000042864 0.000097047 0.000076211 0.000106170 0.000064220
 0.000061432 0.000068409 0.000096509
     233
 0.000002743 0.000002492 0.000002380 0.000319692 0.000156919 0.000048001
 0.000068701 0.000130752 0.000096138 0.000147017 0.000136025 0.000147924
 0.000103310 0.000153044 0.000027632 0.000027819 0.000113100 0.000072795
 0.000171721 0.000090178 0.000053270 0.000196016 0.000147650 0.000075746
 0.000182401 0.000043244 0.000098042 0.000076199 0.000104816 0.000064174
 0.000062571 0.000068974 0.000096883
     234
 0.000002826 0.000002548 0.000002416 0.000321582 0.000155904 0.000048250
 0.000070247 0.000137370 0.000093410 0.000146670 0.000137134 0.000145786
 0.000102828 0.000153465 0.000028066 0.000027971 0.000113915 0.000072556
 0.000174683 0.000089511 0.000053566 0.000196775 0.000148444 0.000075395
 0.000185653 0.000043593 0.000099194 0.000076200 0.000103220 0.000064136
 0.000063690 0.000069518 0.000097251
     235
 0.000002906 0.000002603 0.000002451 0.000323527 0.000154882 0.000048500
 0.000071780 0.000143214 0.000091117 0.000146412 0.000138310 0.000143569
 0.000102404 0.000153685 0.000028494 0.000028113 0.000114689 0.000072346
 0.000177794 0.000088844 0.000053850 0.000197518 0.000149208 0.000075088
 0.000188863 0.000043910 0.000100525 0.000076214 0.000101375 0.000064105
 0.000064781 0.000070040 0.000097613
     236
 0.000002984 0.000002655 0.000002484 0.000325535 0.000153861 0.000048758
 0.000073291 0.000148315 0.000089207 0.000146227 0.000139562 0.000141274
 0.000102040 0.000153680 0.000028917 0.000028243 0.000115424 0.000072163
 0.000181049 0.000088182 0.000054119 0.000198245 0.000149935 0.000074823
 0.000192004 0.000044198 0.000102059 0.000076238 0.000099279 0.000064081
 0.000065836 0.000070538 0.000097965
     237
 0.000003059 0.000002705 0.000002515 0.000327610 0.000152847 0.000049035
 0.000074772 0.000152702 0.000087630 0.000146102 0.000140896 0.000138903
 0.000101735 0.000153425 0.000029335 0.000028359 0.000116123 0.000072005
 0.000184444 0.000087531 0.000054371 0.000198958 0.000150617 0.000074599
 0.000195047 0.000044457 0.000103822 0.000076269 0.000096930 0.000064063
 0.000066848 0.000071011 0.000098306
     238
 0.000003130 0.000002753 0.000002545 0.000329761 0.000151850 0.000049339
 0.000076210 0.000156398 0.000086337 0.000146027 0.000142321 0.000136457
 0.000101488 0.000152896 0.000029747 0.000028458 0.000116788 0.000071871
 0.000187975 0.000086898 0.000054604 0.000199656 0.000151249 0.000074414
 0.000197959 0.000044690 0.000105837 0.000076308 0.000094331 0.000064050
 0.000067811 0.000071458 0.000098633
     239
 0.000003198 0.000002798 0.000002574 0.000331990 0.000150880 0.000049681
 0.000077597 0.000159422 0.000085286 0.000145991 0.000143843 0.000133938
 0.000101296 0.000152071 0.000030155 0.000028535 0.000117423 0.000191636
 0.000071757 0.000086289 0.000054814 0.000200338 0.000151827 0.000074264
 0.000200706 0.000044898 0.000108124 0.000076351 0.000091490 0.000064040
 0.000068720 0.000071878 0.000098945
     240
 0.000003261 0.000002840 0.000002600 0.000334298 0.000149946 0.000050066
 0.000078920 0.000161798 0.000084440 0.000145986 0.000145468 0.000131352
 0.000101156 0.000150932 0.000030562 0.000028586 0.000118033 0.000195421
 0.000071663 0.000085712 0.000054998 0.000201002 0.000152348 0.000074146
 0.000203253 0.000045082 0.000110694 0.000076397 0.000088421 0.000064034
 0.000069569 0.000072268 0.000099240
     241
 0.000003320 0.000002879 0.000002624 0.000336682 0.000149060 0.000050490
 0.000080166 0.000163556 0.000083765 0.000146003 0.000147197 0.000128706
 0.000101062 0.000149468 0.000030970 0.000028605 0.000118621 0.000199319
 0.000071587 0.000085175 0.000055153 0.000201643 0.000152811 0.000074057
 0.000205571 0.000045244 0.000113549 0.000076444 0.000085148 0.000064031
 0.000070356 0.000072629 0.000099515
     242
 0.000003374 0.000002914 0.000002647 0.000339128 0.000148234 0.000050944
 0.000081323 0.000164739 0.000083233 0.000146037 0.000149027 0.000126014
 0.000101009 0.000147675 0.000031385 0.000028585 0.000119192 0.000203312
 0.000071525 0.000084686 0.000055276 0.000202258 0.000153214 0.000073993
 0.000207634 0.000045386 0.000116668 0.000076492 0.000081709 0.000064029
 0.000071077 0.000072959 0.000099770
     243
 0.000003423 0.000002946 0.000002667 0.000341614 0.000147479 0.000051406
 0.000082377 0.000165408 0.000082819 0.000146082 0.000150947 0.000123295
 0.000100990 0.000145565 0.000031814 0.000028516 0.000119749 0.000207372
 0.000071477 0.000084253 0.000055365 0.000202840 0.000153559 0.000073950
 0.000209426 0.000045510 0.000120010 0.000076538 0.000078155 0.000064029
 0.000071728 0.000073258 0.000100002
     244
 0.000003467 0.000002975 0.000002685 0.000344101 0.000146807 0.000051847
 0.000083317 0.000165643 0.000082502 0.000146133 0.000152932 0.000120583
 0.000100997 0.000143172 0.000032268 0.000028385 0.000120294 0.000211453
 0.000071440 0.000083882 0.000055416 0.000203382 0.000153848 0.000073925
 0.000210939 0.000045615 0.000123501 0.000076582 0.000074561 0.000064030
 0.000072307 0.000073523 0.000100210
     245
 0.000003506 0.000003000 0.000002701 0.000346537 0.000146226 0.000052236
 0.000084132 0.000165541 0.000082263 0.000146185 0.000154943 0.000117925
 0.000101024 0.000140556 0.000032763 0.000028173 0.000120825 0.000215484
 0.000071412 0.000083579 0.000055431 0.000203875 0.000154084 0.000073912
 0.000212179 0.000045704 0.000127036 0.000076622 0.000071021 0.000064032
 0.000072813 0.000073755 0.000100394
     246
 0.000003539 0.000003022 0.000002714 0.000348847 0.000145742 0.000052547
 0.000084815 0.000165208 0.000082087 0.000146235 0.000156919 0.000115388
 0.000101062 0.000137823 0.000033325 0.000027855 0.000121337 0.000219363
 0.000071391 0.000083344 0.000055413 0.000204312 0.000154272 0.000073909
 0.000213161 0.000045777 0.000130476 0.000076657 0.000067653 0.000064034
 0.000073243 0.000073952 0.000100551
     247
 0.000003566 0.000003039 0.000002725 0.000350943 0.000145360 0.000052766
 0.000085363 0.000164755 0.000081960 0.000146280 0.000158775 0.000113064
 0.000101104 0.000135122 0.000033985 0.000027395 0.000121815 0.000222948
 0.000071377 0.000083176 0.000055368 0.000204685 0.000154417 0.000073912
 0.000213908 0.000045836 0.000133655 0.000076687 0.000064596 0.000064036
 0.000073596 0.000074114 0.000100680
     248
 0.000003587 0.000003053 0.000002734 0.000352725 0.000145075 0.000052899
 0.000085777 0.000164284 0.000081873 0.000146317 0.000160405 0.000111065
 0.000101145 0.000132653 0.000034782 0.000026756 0.000122237 0.000226058
 0.000071367 0.000083066 0.000055308 0.000204984 0.000154523 0.000073918
 0.000214448 0.000045881 0.000136392 0.000076712 0.000061999 0.000064038
 0.000073872 0.000074241 0.000100782
     249
 0.000003602 0.000003063 0.000002740 0.000354090 0.000144881 0.000052964
 0.000086063 0.000163881 0.000081816 0.000146345 0.000161691 0.000109513
 0.000101178 0.000130646 0.000035718 0.000025933 0.000122573 0.000228489
 0.000071361 0.000083002 0.000055248 0.000205203 0.000154596 0.000073923
 0.000214809 0.000045913 0.000138506 0.000076729 0.000060012 0.000064039
 0.000074070 0.000074332 0.000100856
     250
 0.000003611 0.000003069 0.000002744 0.000354951 0.000144770 0.000052988
 0.000086230 0.000163613 0.000081784 0.000146363 0.000162518 0.000108524
 0.000101199 0.000129327 0.000036633 0.000025086 0.000122792 0.000230046
 0.000071358 0.000082972 0.000055203 0.000205337 0.000154637 0.000073928
 0.000215015 0.000045932 0.000139845 0.000076740 0.000058762 0.000064040
 0.000074188 0.000074386 0.000100900
     251
 0.000003614 0.000003071 0.000002745 0.000355245 0.000144734 0.000052993
 0.000086284 0.000163518 0.000081774 0.000146368 0.000162804 0.000108185
 0.000101206 0.000128866 0.000037057 0.000024686 0.000122868 0.000230583
 0.000071356 0.000082963 0.000055187 0.000205382 0.000154651 0.000073929
 0.000215082 0.000045938 0.000140303 0.000076744 0.000058334 0.000064040
 0.000074228 0.000074405 0.000100914
 
     MATDYN       :     25.80s CPU     29.93s WALL

 
   This run was terminated on:  20:16:47  28Oct2025            

=------------------------------------------------------------------------------=
   JOB DONE.
=------------------------------------------------------------------------------=
