
     Program PHONON v.7.4.1 starts on 22Oct2025 at 10:32:43 

     This program is part of the open-source Quantum ESPRESSO suite
     for quantum simulation of materials; please cite
         "P. Giannozzi et al., J. Phys.:Condens. Matter 21 395502 (2009);
         "P. Giannozzi et al., J. Phys.:Condens. Matter 29 465901 (2017);
         "P. Giannozzi et al., J. Chem. Phys. 152 154105 (2020);
          URL http://www.quantum-espresso.org", 
     in publications or presentations arising from this work. More details at
     http://www.quantum-espresso.org/quote

     Parallel version (MPI), running on     1 processors

     MPI processes distributed on     1 nodes
     104975 MiB available memory on the printing compute node when the environment starts
 
     Waiting for input...
     Reading input from standard input

     Reading xml data from directory:

     ./tmp/La1H10.save/
 
     Subspace diagonalization in iterative solution of the eigenvalue problem:
     a serial algorithm will be used

     file La.pbe-spfn-kjpaw_psl.1.0.0.UPF: wavefunction(s)  5S 5D 4F renormalized
     file H.pbe-kjpaw_psl.1.0.0.UPF: wavefunction(s)  1S renormalized

     IMPORTANT: XC functional enforced from input :
     Exchange-correlation= PBE
                           (   1   4   3   4   0   0   0)
     Any further DFT definition will be discarded
     Please, verify this is what you really want

 
     G-vector sticks info
     --------------------
     sticks:   dense  smooth     PW     G-vecs:    dense   smooth      PW
     Sum        2773     925    283                96353    18499    3119
 
     Using Slab Decomposition
 
     Reading collected, re-writing distributed wavefunctions in ./tmp/


     Dynamical matrices for ( 6, 6, 6)  uniform grid of q-points
     (  16 q-points):
       N         xq(1)         xq(2)         xq(3) 
       1   0.000000000   0.000000000   0.000000000
       2   0.117851130   0.117851130  -0.117851130
       3   0.235702260   0.235702260  -0.235702260
       4  -0.353553391  -0.353553391   0.353553391
       5   0.235702260   0.000000000   0.000000000
       6   0.353553391   0.117851130  -0.117851130
       7  -0.235702260  -0.471404521   0.471404521
       8  -0.117851130  -0.353553391   0.353553391
       9   0.000000000  -0.235702260   0.235702260
      10   0.471404521   0.000000000   0.000000000
      11  -0.117851130  -0.589255651   0.589255651
      12  -0.000000000  -0.471404521   0.471404521
      13  -0.707106781   0.000000000   0.000000000
      14  -0.235702260  -0.471404521   0.707106781
      15  -0.117851130  -0.353553391   0.589255651
      16  -0.707106781   0.235702260   0.000000000

     Number and degeneracy of irreps per q-point
       N         xq(1)         xq(2)         xq(3)   N irreps
       1   0.000000000   0.000000000   0.000000000      13
        1   2   3   3   3   3   1   2   3   3   3   3   3
       2   0.117851130   0.117851130  -0.117851130      22
        1   1   1   1   1   1   1   1   1   1   1   2   2   2   2   2   2   2
   2   2   2   2
