
     Program PWSCF v.7.4.1 starts on 22Oct2025 at 10:25:52 

     This program is part of the open-source Quantum ESPRESSO suite
     for quantum simulation of materials; please cite
         "P. Giannozzi et al., J. Phys.:Condens. Matter 21 395502 (2009);
         "P. Giannozzi et al., J. Phys.:Condens. Matter 29 465901 (2017);
         "P. Giannozzi et al., J. Chem. Phys. 152 154105 (2020);
          URL http://www.quantum-espresso.org", 
     in publications or presentations arising from this work. More details at
     http://www.quantum-espresso.org/quote

     Parallel version (MPI), running on    48 processors

     MPI processes distributed on     1 nodes
     180930 MiB available memory on the printing compute node when the environment starts
 
     Waiting for input...
     Reading input from standard input

     Current dimensions of program PWSCF are:
     Max number of different atomic species (ntypx) = 10
     Max number of k-points (npk) =  40000
     Max angular momentum in pseudopotentials (lmaxx) =  4
     file La.pbe-spfn-kjpaw_psl.1.0.0.UPF: wavefunction(s)  5S 5D 4F renormalized
     file H.pbe-kjpaw_psl.1.0.0.UPF: wavefunction(s)  1S renormalized
     Message from routine setup:
     using ibrav=0 with symmetry is DISCOURAGED, use correct ibrav instead
 
     K-points division:     npool     =       4
     R & G space division:  proc/nbgrp/npool/nimage =      12
     Subspace diagonalization in iterative solution of the eigenvalue problem:
     a serial algorithm will be used

 
     Parallelization info
     --------------------
     sticks:   dense  smooth     PW     G-vecs:    dense   smooth      PW
     Min         231      77     23                 8029     1540     259
     Max         232      78     24                 8031     1543     261
     Sum        2773     925    283                96353    18499    3119
 
     Using Slab Decomposition
 


     bravais-lattice index     =            0
     lattice parameter (alat)  =       6.4717  a.u.
     unit-cell volume          =     191.6635 (a.u.)^3
     number of atoms/cell      =           11
     number of atomic types    =            2
     number of electrons       =        21.00
     number of Kohn-Sham states=           15
     kinetic-energy cutoff     =      80.0000  Ry
     charge density cutoff     =     960.0000  Ry
     scf convergence threshold =      1.0E-09
     mixing beta               =       0.7000
     number of iterations used =            8  plain     mixing
     energy convergence thresh.=      1.0E-07
     force convergence thresh. =      1.0E-06
     press convergence thresh. =      1.0E-02
     Exchange-correlation= SLA  PW   PBX  PBC
                           (   1   4   3   4   0   0   0)
     nstep                     =         2000


     celldm(1)=   6.471696  celldm(2)=   0.000000  celldm(3)=   0.000000
     celldm(4)=   0.000000  celldm(5)=   0.000000  celldm(6)=   0.000000

     crystal axes: (cart. coord. in units of alat)
               a(1) = (   0.000000   0.707107   0.707107 )  
               a(2) = (   0.707107   0.000000   0.707107 )  
               a(3) = (   0.707107   0.707107   0.000000 )  

     reciprocal axes: (cart. coord. in units 2 pi/alat)
               b(1) = ( -0.707107  0.707107  0.707107 )  
               b(2) = (  0.707107 -0.707107  0.707107 )  
               b(3) = (  0.707107  0.707107 -0.707107 )  


     PseudoPot. # 1 for La read from file:
     /work/home/mayuan/workplace/1.typical_hydride/003.MH10/1.LaH10/250/Tc-666-paw/pp/La.pbe-spfn-kjpaw_psl.1.0.0.UPF
     MD5 check sum: ccc10218a00d76b68822f6b8f5772390
     Pseudo is Projector augmented-wave + core cor, Zval = 11.0
     Generated using 'atomic' code by A. Dal Corso  v.7.1
     Shape of augmentation charge: PSQ
     Using radial grid of 1253 points,  8 beta functions with: 
                l(1) =   0
                l(2) =   0
                l(3) =   1
                l(4) =   1
                l(5) =   2
                l(6) =   2
                l(7) =   3
                l(8) =   3
     Q(r) pseudized with 0 coefficients 


     PseudoPot. # 2 for H  read from file:
     /work/home/mayuan/workplace/1.typical_hydride/003.MH10/1.LaH10/250/Tc-666-paw/pp/H.pbe-kjpaw_psl.1.0.0.UPF
     MD5 check sum: 3bb27c602ede137025941d095c9090b7
     Pseudo is Projector augmented-wave, Zval =  1.0
     Generated using 'atomic' code by A. Dal Corso  v.7.1
     Shape of augmentation charge: PSQ
     Using radial grid of  929 points,  2 beta functions with: 
                l(1) =   0
                l(2) =   0
     Q(r) pseudized with 0 coefficients 


     atomic species   valence    mass     pseudopotential
     La               11.00   138.90547     La( 1.00)
     H                 1.00     1.00794     H ( 1.00)

     48 Sym. Ops., with inversion, found


                                    s                        frac. trans.

      isym =  1     identity                                     

 cryst.   s( 1) = (     1          0          0      )
                  (     0          1          0      )
                  (     0          0          1      )

 cart.    s( 1) = (  1.0000000  0.0000000  0.0000000 )
                  (  0.0000000  1.0000000  0.0000000 )
                  (  0.0000000  0.0000000  1.0000000 )


      isym =  2     180 deg rotation - cart. axis [0,0,1]        

 cryst.   s( 2) = (     0          1         -1      )
                  (     1          0         -1      )
                  (     0          0         -1      )

 cart.    s( 2) = ( -1.0000000  0.0000000  0.0000000 )
                  (  0.0000000 -1.0000000  0.0000000 )
                  (  0.0000000  0.0000000  1.0000000 )


      isym =  3     180 deg rotation - cart. axis [0,1,0]        

 cryst.   s( 3) = (     0         -1          1      )
                  (     0         -1          0      )
                  (     1         -1          0      )

 cart.    s( 3) = ( -1.0000000  0.0000000  0.0000000 )
                  (  0.0000000  1.0000000  0.0000000 )
                  (  0.0000000  0.0000000 -1.0000000 )


      isym =  4     180 deg rotation - cart. axis [1,0,0]        

 cryst.   s( 4) = (    -1          0          0      )
                  (    -1          0          1      )
                  (    -1          1          0      )

 cart.    s( 4) = (  1.0000000  0.0000000  0.0000000 )
                  (  0.0000000 -1.0000000  0.0000000 )
                  (  0.0000000  0.0000000 -1.0000000 )


      isym =  5     180 deg rotation - cart. axis [1,1,0]        

 cryst.   s( 5) = (    -1          0          1      )
                  (     0         -1          1      )
                  (     0          0          1      )

 cart.    s( 5) = (  0.0000000  1.0000000  0.0000000 )
                  (  1.0000000  0.0000000  0.0000000 )
                  (  0.0000000  0.0000000 -1.0000000 )


      isym =  6     180 deg rotation - cart. axis [1,-1,0]       

 cryst.   s( 6) = (     0         -1          0      )
                  (    -1          0          0      )
                  (     0          0         -1      )

 cart.    s( 6) = (  0.0000000 -1.0000000  0.0000000 )
                  ( -1.0000000  0.0000000  0.0000000 )
                  (  0.0000000  0.0000000 -1.0000000 )


      isym =  7      90 deg rotation - cart. axis [0,0,-1]       

 cryst.   s( 7) = (     0          1          0      )
                  (     0          1         -1      )
                  (    -1          1          0      )

 cart.    s( 7) = (  0.0000000  1.0000000  0.0000000 )
                  ( -1.0000000  0.0000000  0.0000000 )
                  (  0.0000000  0.0000000  1.0000000 )


      isym =  8      90 deg rotation - cart. axis [0,0,1]        

 cryst.   s( 8) = (     1          0         -1      )
                  (     1          0          0      )
                  (     1         -1          0      )

 cart.    s( 8) = (  0.0000000 -1.0000000  0.0000000 )
                  (  1.0000000  0.0000000  0.0000000 )
                  (  0.0000000  0.0000000  1.0000000 )


      isym =  9     180 deg rotation - cart. axis [1,0,1]        

 cryst.   s( 9) = (    -1          1          0      )
                  (     0          1          0      )
                  (     0          1         -1      )

 cart.    s( 9) = (  0.0000000  0.0000000  1.0000000 )
                  (  0.0000000 -1.0000000  0.0000000 )
                  (  1.0000000  0.0000000  0.0000000 )


      isym = 10     180 deg rotation - cart. axis [-1,0,1]       

 cryst.   s(10) = (     0          0         -1      )
                  (     0         -1          0      )
                  (    -1          0          0      )

 cart.    s(10) = (  0.0000000  0.0000000 -1.0000000 )
                  (  0.0000000 -1.0000000  0.0000000 )
                  ( -1.0000000  0.0000000  0.0000000 )


      isym = 11      90 deg rotation - cart. axis [0,1,0]        

 cryst.   s(11) = (     0          0          1      )
                  (    -1          0          1      )
                  (     0         -1          1      )

 cart.    s(11) = (  0.0000000  0.0000000  1.0000000 )
                  (  0.0000000  1.0000000  0.0000000 )
                  ( -1.0000000  0.0000000  0.0000000 )


      isym = 12      90 deg rotation - cart. axis [0,-1,0]       

 cryst.   s(12) = (     1         -1          0      )
                  (     1          0         -1      )
                  (     1          0          0      )

 cart.    s(12) = (  0.0000000  0.0000000 -1.0000000 )
                  (  0.0000000  1.0000000  0.0000000 )
                  (  1.0000000  0.0000000  0.0000000 )


      isym = 13     180 deg rotation - cart. axis [0,1,1]        

 cryst.   s(13) = (     1          0          0      )
                  (     1         -1          0      )
                  (     1          0         -1      )

 cart.    s(13) = ( -1.0000000  0.0000000  0.0000000 )
                  (  0.0000000  0.0000000  1.0000000 )
                  (  0.0000000  1.0000000  0.0000000 )


      isym = 14     180 deg rotation - cart. axis [0,1,-1]       

 cryst.   s(14) = (    -1          0          0      )
                  (     0          0         -1      )
                  (     0         -1          0      )

 cart.    s(14) = ( -1.0000000  0.0000000  0.0000000 )
                  (  0.0000000  0.0000000 -1.0000000 )
                  (  0.0000000 -1.0000000  0.0000000 )


      isym = 15      90 deg rotation - cart. axis [-1,0,0]       

 cryst.   s(15) = (     0         -1          1      )
                  (     0          0          1      )
                  (    -1          0          1      )

 cart.    s(15) = (  1.0000000  0.0000000  0.0000000 )
                  (  0.0000000  0.0000000  1.0000000 )
                  (  0.0000000 -1.0000000  0.0000000 )


      isym = 16      90 deg rotation - cart. axis [1,0,0]        

 cryst.   s(16) = (     0          1         -1      )
                  (    -1          1          0      )
                  (     0          1          0      )

 cart.    s(16) = (  1.0000000  0.0000000  0.0000000 )
                  (  0.0000000  0.0000000 -1.0000000 )
                  (  0.0000000  1.0000000  0.0000000 )


      isym = 17     120 deg rotation - cart. axis [-1,-1,-1]     

 cryst.   s(17) = (     0          0          1      )
                  (     1          0          0      )
                  (     0          1          0      )

 cart.    s(17) = (  0.0000000  1.0000000  0.0000000 )
                  (  0.0000000  0.0000000  1.0000000 )
                  (  1.0000000  0.0000000  0.0000000 )


      isym = 18     120 deg rotation - cart. axis [-1,1,1]       

 cryst.   s(18) = (     1         -1          0      )
                  (     0         -1          1      )
                  (     0         -1          0      )

 cart.    s(18) = (  0.0000000 -1.0000000  0.0000000 )
                  (  0.0000000  0.0000000  1.0000000 )
                  ( -1.0000000  0.0000000  0.0000000 )


      isym = 19     120 deg rotation - cart. axis [1,1,-1]       

 cryst.   s(19) = (    -1          1          0      )
                  (    -1          0          0      )
                  (    -1          0          1      )

 cart.    s(19) = (  0.0000000  1.0000000  0.0000000 )
                  (  0.0000000  0.0000000 -1.0000000 )
                  ( -1.0000000  0.0000000  0.0000000 )


      isym = 20     120 deg rotation - cart. axis [1,-1,1]       

 cryst.   s(20) = (     0          0         -1      )
                  (     0          1         -1      )
                  (     1          0         -1      )

 cart.    s(20) = (  0.0000000 -1.0000000  0.0000000 )
                  (  0.0000000  0.0000000 -1.0000000 )
                  (  1.0000000  0.0000000  0.0000000 )


      isym = 21     120 deg rotation - cart. axis [1,1,1]        

 cryst.   s(21) = (     0          1          0      )
                  (     0          0          1      )
                  (     1          0          0      )

 cart.    s(21) = (  0.0000000  0.0000000  1.0000000 )
                  (  1.0000000  0.0000000  0.0000000 )
                  (  0.0000000  1.0000000  0.0000000 )


      isym = 22     120 deg rotation - cart. axis [-1,1,-1]      

 cryst.   s(22) = (    -1          0          1      )
                  (    -1          1          0      )
                  (    -1          0          0      )

 cart.    s(22) = (  0.0000000  0.0000000  1.0000000 )
                  ( -1.0000000  0.0000000  0.0000000 )
                  (  0.0000000 -1.0000000  0.0000000 )


      isym = 23     120 deg rotation - cart. axis [1,-1,-1]      

 cryst.   s(23) = (     1          0         -1      )
                  (     0          0         -1      )
                  (     0          1         -1      )

 cart.    s(23) = (  0.0000000  0.0000000 -1.0000000 )
                  ( -1.0000000  0.0000000  0.0000000 )
                  (  0.0000000  1.0000000  0.0000000 )


      isym = 24     120 deg rotation - cart. axis [-1,-1,1]      

 cryst.   s(24) = (     0         -1          0      )
                  (     1         -1          0      )
                  (     0         -1          1      )

 cart.    s(24) = (  0.0000000  0.0000000 -1.0000000 )
                  (  1.0000000  0.0000000  0.0000000 )
                  (  0.0000000 -1.0000000  0.0000000 )


      isym = 25     inversion                                    

 cryst.   s(25) = (    -1          0          0      )
                  (     0         -1          0      )
                  (     0          0         -1      )

 cart.    s(25) = ( -1.0000000  0.0000000  0.0000000 )
                  (  0.0000000 -1.0000000  0.0000000 )
                  (  0.0000000  0.0000000 -1.0000000 )


      isym = 26     inv. 180 deg rotation - cart. axis [0,0,1]   

 cryst.   s(26) = (     0         -1          1      )
                  (    -1          0          1      )
                  (     0          0          1      )

 cart.    s(26) = (  1.0000000  0.0000000  0.0000000 )
                  (  0.0000000  1.0000000  0.0000000 )
                  (  0.0000000  0.0000000 -1.0000000 )


      isym = 27     inv. 180 deg rotation - cart. axis [0,1,0]   

 cryst.   s(27) = (     0          1         -1      )
                  (     0          1          0      )
                  (    -1          1          0      )

 cart.    s(27) = (  1.0000000  0.0000000  0.0000000 )
                  (  0.0000000 -1.0000000  0.0000000 )
                  (  0.0000000  0.0000000  1.0000000 )


      isym = 28     inv. 180 deg rotation - cart. axis [1,0,0]   

 cryst.   s(28) = (     1          0          0      )
                  (     1          0         -1      )
                  (     1         -1          0      )

 cart.    s(28) = ( -1.0000000  0.0000000  0.0000000 )
                  (  0.0000000  1.0000000  0.0000000 )
                  (  0.0000000  0.0000000  1.0000000 )


      isym = 29     inv. 180 deg rotation - cart. axis [1,1,0]   

 cryst.   s(29) = (     1          0         -1      )
                  (     0          1         -1      )
                  (     0          0         -1      )

 cart.    s(29) = (  0.0000000 -1.0000000  0.0000000 )
                  ( -1.0000000  0.0000000  0.0000000 )
                  (  0.0000000  0.0000000  1.0000000 )


      isym = 30     inv. 180 deg rotation - cart. axis [1,-1,0]  

 cryst.   s(30) = (     0          1          0      )
                  (     1          0          0      )
                  (     0          0          1      )

 cart.    s(30) = (  0.0000000  1.0000000  0.0000000 )
                  (  1.0000000  0.0000000  0.0000000 )
                  (  0.0000000  0.0000000  1.0000000 )


      isym = 31     inv.  90 deg rotation - cart. axis [0,0,-1]  

 cryst.   s(31) = (     0         -1          0      )
                  (     0         -1          1      )
                  (     1         -1          0      )

 cart.    s(31) = (  0.0000000 -1.0000000  0.0000000 )
                  (  1.0000000  0.0000000  0.0000000 )
                  (  0.0000000  0.0000000 -1.0000000 )


      isym = 32     inv.  90 deg rotation - cart. axis [0,0,1]   

 cryst.   s(32) = (    -1          0          1      )
                  (    -1          0          0      )
                  (    -1          1          0      )

 cart.    s(32) = (  0.0000000  1.0000000  0.0000000 )
                  ( -1.0000000  0.0000000  0.0000000 )
                  (  0.0000000  0.0000000 -1.0000000 )


      isym = 33     inv. 180 deg rotation - cart. axis [1,0,1]   

 cryst.   s(33) = (     1         -1          0      )
                  (     0         -1          0      )
                  (     0         -1          1      )

 cart.    s(33) = (  0.0000000  0.0000000 -1.0000000 )
                  (  0.0000000  1.0000000  0.0000000 )
                  ( -1.0000000  0.0000000  0.0000000 )


      isym = 34     inv. 180 deg rotation - cart. axis [-1,0,1]  

 cryst.   s(34) = (     0          0          1      )
                  (     0          1          0      )
                  (     1          0          0      )

 cart.    s(34) = (  0.0000000  0.0000000  1.0000000 )
                  (  0.0000000  1.0000000  0.0000000 )
                  (  1.0000000  0.0000000  0.0000000 )


      isym = 35     inv.  90 deg rotation - cart. axis [0,1,0]   

 cryst.   s(35) = (     0          0         -1      )
                  (     1          0         -1      )
                  (     0          1         -1      )

 cart.    s(35) = (  0.0000000  0.0000000 -1.0000000 )
                  (  0.0000000 -1.0000000  0.0000000 )
                  (  1.0000000  0.0000000  0.0000000 )


      isym = 36     inv.  90 deg rotation - cart. axis [0,-1,0]  

 cryst.   s(36) = (    -1          1          0      )
                  (    -1          0          1      )
                  (    -1          0          0      )

 cart.    s(36) = (  0.0000000  0.0000000  1.0000000 )
                  (  0.0000000 -1.0000000  0.0000000 )
                  ( -1.0000000  0.0000000  0.0000000 )


      isym = 37     inv. 180 deg rotation - cart. axis [0,1,1]   

 cryst.   s(37) = (    -1          0          0      )
                  (    -1          1          0      )
                  (    -1          0          1      )

 cart.    s(37) = (  1.0000000  0.0000000  0.0000000 )
                  (  0.0000000  0.0000000 -1.0000000 )
                  (  0.0000000 -1.0000000  0.0000000 )


      isym = 38     inv. 180 deg rotation - cart. axis [0,1,-1]  

 cryst.   s(38) = (     1          0          0      )
                  (     0          0          1      )
                  (     0          1          0      )

 cart.    s(38) = (  1.0000000  0.0000000  0.0000000 )
                  (  0.0000000  0.0000000  1.0000000 )
                  (  0.0000000  1.0000000  0.0000000 )


      isym = 39     inv.  90 deg rotation - cart. axis [-1,0,0]  

 cryst.   s(39) = (     0          1         -1      )
                  (     0          0         -1      )
                  (     1          0         -1      )

 cart.    s(39) = ( -1.0000000  0.0000000  0.0000000 )
                  (  0.0000000  0.0000000 -1.0000000 )
                  (  0.0000000  1.0000000  0.0000000 )


      isym = 40     inv.  90 deg rotation - cart. axis [1,0,0]   

 cryst.   s(40) = (     0         -1          1      )
                  (     1         -1          0      )
                  (     0         -1          0      )

 cart.    s(40) = ( -1.0000000  0.0000000  0.0000000 )
                  (  0.0000000  0.0000000  1.0000000 )
                  (  0.0000000 -1.0000000  0.0000000 )


      isym = 41     inv. 120 deg rotation - cart. axis [-1,-1,-1]

 cryst.   s(41) = (     0          0         -1      )
                  (    -1          0          0      )
                  (     0         -1          0      )

 cart.    s(41) = (  0.0000000 -1.0000000  0.0000000 )
                  (  0.0000000  0.0000000 -1.0000000 )
                  ( -1.0000000  0.0000000  0.0000000 )


      isym = 42     inv. 120 deg rotation - cart. axis [-1,1,1]  

 cryst.   s(42) = (    -1          1          0      )
                  (     0          1         -1      )
                  (     0          1          0      )

 cart.    s(42) = (  0.0000000  1.0000000  0.0000000 )
                  (  0.0000000  0.0000000 -1.0000000 )
                  (  1.0000000  0.0000000  0.0000000 )


      isym = 43     inv. 120 deg rotation - cart. axis [1,1,-1]  

 cryst.   s(43) = (     1         -1          0      )
                  (     1          0          0      )
                  (     1          0         -1      )

 cart.    s(43) = (  0.0000000 -1.0000000  0.0000000 )
                  (  0.0000000  0.0000000  1.0000000 )
                  (  1.0000000  0.0000000  0.0000000 )


      isym = 44     inv. 120 deg rotation - cart. axis [1,-1,1]  

 cryst.   s(44) = (     0          0          1      )
                  (     0         -1          1      )
                  (    -1          0          1      )

 cart.    s(44) = (  0.0000000  1.0000000  0.0000000 )
                  (  0.0000000  0.0000000  1.0000000 )
                  ( -1.0000000  0.0000000  0.0000000 )


      isym = 45     inv. 120 deg rotation - cart. axis [1,1,1]   

 cryst.   s(45) = (     0         -1          0      )
                  (     0          0         -1      )
                  (    -1          0          0      )

 cart.    s(45) = (  0.0000000  0.0000000 -1.0000000 )
                  ( -1.0000000  0.0000000  0.0000000 )
                  (  0.0000000 -1.0000000  0.0000000 )


      isym = 46     inv. 120 deg rotation - cart. axis [-1,1,-1] 

 cryst.   s(46) = (     1          0         -1      )
                  (     1         -1          0      )
                  (     1          0          0      )

 cart.    s(46) = (  0.0000000  0.0000000 -1.0000000 )
                  (  1.0000000  0.0000000  0.0000000 )
                  (  0.0000000  1.0000000  0.0000000 )


      isym = 47     inv. 120 deg rotation - cart. axis [1,-1,-1] 

 cryst.   s(47) = (    -1          0          1      )
                  (     0          0          1      )
                  (     0         -1          1      )

 cart.    s(47) = (  0.0000000  0.0000000  1.0000000 )
                  (  1.0000000  0.0000000  0.0000000 )
                  (  0.0000000 -1.0000000  0.0000000 )


      isym = 48     inv. 120 deg rotation - cart. axis [-1,-1,1] 

 cryst.   s(48) = (     0          1          0      )
                  (    -1          1          0      )
                  (     0          1         -1      )

 cart.    s(48) = (  0.0000000  0.0000000  1.0000000 )
                  ( -1.0000000  0.0000000  0.0000000 )
                  (  0.0000000  1.0000000  0.0000000 )


   Cartesian axes

     site n.     atom                  positions (alat units)
         1        La     tau(   1) = (   0.0000000   0.0000000   0.0000000  )
         2        H      tau(   2) = (   0.3535534   0.3535534   0.3535534  )
         3        H      tau(   3) = (   1.0606602   1.0606602   1.0606602  )
         4        H      tau(   4) = (   0.8776867   0.8776867   0.8776867  )
         5        H      tau(   5) = (   0.5365268   0.5365268   0.5365268  )
         6        H      tau(   6) = (   0.5365268   0.5365268   0.8776867  )
         7        H      tau(   7) = (   0.8776867   0.8776867   0.5365268  )
         8        H      tau(   8) = (   0.5365268   0.8776867   0.5365268  )
         9        H      tau(   9) = (   0.8776867   0.5365268   0.8776867  )
        10        H      tau(  10) = (   0.8776867   0.5365268   0.5365268  )
        11        H      tau(  11) = (   0.5365268   0.8776867   0.8776867  )

   Crystallographic axes

     site n.     atom                  positions (cryst. coord.)
         1        La     tau(   1) = (  0.0000000  0.0000000  0.0000000  )
         2        H      tau(   2) = (  0.2500000  0.2500000  0.2500000  )
         3        H      tau(   3) = (  0.7500000  0.7500000  0.7500000  )
         4        H      tau(   4) = (  0.6206182  0.6206182  0.6206182  )
         5        H      tau(   5) = (  0.3793818  0.3793818  0.3793818  )
         6        H      tau(   6) = (  0.6206182  0.6206182  0.1381453  )
         7        H      tau(   7) = (  0.3793818  0.3793818  0.8618547  )
         8        H      tau(   8) = (  0.6206182  0.1381453  0.6206182  )
         9        H      tau(   9) = (  0.3793818  0.8618547  0.3793818  )
        10        H      tau(  10) = (  0.1381453  0.6206182  0.6206182  )
        11        H      tau(  11) = (  0.8618547  0.3793818  0.3793818  )

     number of k points=   413  Gaussian smearing, width (Ry)=  0.0200
                       cart. coord. in units 2pi/alat
        k(    1) = (   0.0000000   0.0000000   0.0000000), wk =   0.0001447
        k(    2) = (   0.0294628   0.0294628  -0.0294628), wk =   0.0011574
        k(    3) = (   0.0589256   0.0589256  -0.0589256), wk =   0.0011574
        k(    4) = (   0.0883883   0.0883883  -0.0883883), wk =   0.0011574
        k(    5) = (   0.1178511   0.1178511  -0.1178511), wk =   0.0011574
        k(    6) = (   0.1473139   0.1473139  -0.1473139), wk =   0.0011574
        k(    7) = (   0.1767767   0.1767767  -0.1767767), wk =   0.0011574
        k(    8) = (   0.2062395   0.2062395  -0.2062395), wk =   0.0011574
        k(    9) = (   0.2357023   0.2357023  -0.2357023), wk =   0.0011574
        k(   10) = (   0.2651650   0.2651650  -0.2651650), wk =   0.0011574
        k(   11) = (   0.2946278   0.2946278  -0.2946278), wk =   0.0011574
        k(   12) = (   0.3240906   0.3240906  -0.3240906), wk =   0.0011574
        k(   13) = (  -0.3535534  -0.3535534   0.3535534), wk =   0.0005787
        k(   14) = (   0.0589256   0.0000000   0.0000000), wk =   0.0008681
        k(   15) = (   0.0883883   0.0294628  -0.0294628), wk =   0.0034722
        k(   16) = (   0.1178511   0.0589256  -0.0589256), wk =   0.0034722
        k(   17) = (   0.1473139   0.0883883  -0.0883883), wk =   0.0034722
        k(   18) = (   0.1767767   0.1178511  -0.1178511), wk =   0.0034722
        k(   19) = (   0.2062395   0.1473139  -0.1473139), wk =   0.0034722
        k(   20) = (   0.2357023   0.1767767  -0.1767767), wk =   0.0034722
        k(   21) = (   0.2651650   0.2062395  -0.2062395), wk =   0.0034722
        k(   22) = (   0.2946278   0.2357023  -0.2357023), wk =   0.0034722
        k(   23) = (   0.3240906   0.2651650  -0.2651650), wk =   0.0034722
        k(   24) = (   0.3535534   0.2946278  -0.2946278), wk =   0.0034722
        k(   25) = (  -0.3240906  -0.3830162   0.3830162), wk =   0.0034722
        k(   26) = (  -0.2946278  -0.3535534   0.3535534), wk =   0.0034722
        k(   27) = (  -0.2651650  -0.3240906   0.3240906), wk =   0.0034722
        k(   28) = (  -0.2357023  -0.2946278   0.2946278), wk =   0.0034722
        k(   29) = (  -0.2062395  -0.2651650   0.2651650), wk =   0.0034722
        k(   30) = (  -0.1767767  -0.2357023   0.2357023), wk =   0.0034722
        k(   31) = (  -0.1473139  -0.2062395   0.2062395), wk =   0.0034722
        k(   32) = (  -0.1178511  -0.1767767   0.1767767), wk =   0.0034722
        k(   33) = (  -0.0883883  -0.1473139   0.1473139), wk =   0.0034722
        k(   34) = (  -0.0589256  -0.1178511   0.1178511), wk =   0.0034722
        k(   35) = (  -0.0294628  -0.0883883   0.0883883), wk =   0.0034722
        k(   36) = (   0.0000000  -0.0589256   0.0589256), wk =   0.0017361
        k(   37) = (   0.1178511   0.0000000   0.0000000), wk =   0.0008681
        k(   38) = (   0.1473139   0.0294628  -0.0294628), wk =   0.0034722
        k(   39) = (   0.1767767   0.0589256  -0.0589256), wk =   0.0034722
        k(   40) = (   0.2062395   0.0883883  -0.0883883), wk =   0.0034722
        k(   41) = (   0.2357023   0.1178511  -0.1178511), wk =   0.0034722
        k(   42) = (   0.2651650   0.1473139  -0.1473139), wk =   0.0034722
        k(   43) = (   0.2946278   0.1767767  -0.1767767), wk =   0.0034722
        k(   44) = (   0.3240906   0.2062395  -0.2062395), wk =   0.0034722
        k(   45) = (   0.3535534   0.2357023  -0.2357023), wk =   0.0034722
        k(   46) = (   0.3830162   0.2651650  -0.2651650), wk =   0.0034722
        k(   47) = (  -0.2946278  -0.4124790   0.4124790), wk =   0.0034722
        k(   48) = (  -0.2651650  -0.3830162   0.3830162), wk =   0.0034722
        k(   49) = (  -0.2357023  -0.3535534   0.3535534), wk =   0.0034722
        k(   50) = (  -0.2062395  -0.3240906   0.3240906), wk =   0.0034722
        k(   51) = (  -0.1767767  -0.2946278   0.2946278), wk =   0.0034722
        k(   52) = (  -0.1473139  -0.2651650   0.2651650), wk =   0.0034722
        k(   53) = (  -0.1178511  -0.2357023   0.2357023), wk =   0.0034722
        k(   54) = (  -0.0883883  -0.2062395   0.2062395), wk =   0.0034722
        k(   55) = (  -0.0589256  -0.1767767   0.1767767), wk =   0.0034722
        k(   56) = (  -0.0294628  -0.1473139   0.1473139), wk =   0.0034722
        k(   57) = (  -0.0000000  -0.1178511   0.1178511), wk =   0.0017361
        k(   58) = (   0.1767767   0.0000000   0.0000000), wk =   0.0008681
        k(   59) = (   0.2062395   0.0294628  -0.0294628), wk =   0.0034722
        k(   60) = (   0.2357023   0.0589256  -0.0589256), wk =   0.0034722
        k(   61) = (   0.2651650   0.0883883  -0.0883883), wk =   0.0034722
        k(   62) = (   0.2946278   0.1178511  -0.1178511), wk =   0.0034722
        k(   63) = (   0.3240906   0.1473139  -0.1473139), wk =   0.0034722
        k(   64) = (   0.3535534   0.1767767  -0.1767767), wk =   0.0034722
        k(   65) = (   0.3830162   0.2062395  -0.2062395), wk =   0.0034722
        k(   66) = (   0.4124790   0.2357023  -0.2357023), wk =   0.0034722
        k(   67) = (  -0.2651650  -0.4419417   0.4419417), wk =   0.0034722
        k(   68) = (  -0.2357023  -0.4124790   0.4124790), wk =   0.0034722
        k(   69) = (  -0.2062395  -0.3830162   0.3830162), wk =   0.0034722
        k(   70) = (  -0.1767767  -0.3535534   0.3535534), wk =   0.0034722
        k(   71) = (  -0.1473139  -0.3240906   0.3240906), wk =   0.0034722
        k(   72) = (  -0.1178511  -0.2946278   0.2946278), wk =   0.0034722
        k(   73) = (  -0.0883883  -0.2651650   0.2651650), wk =   0.0034722
        k(   74) = (  -0.0589256  -0.2357023   0.2357023), wk =   0.0034722
        k(   75) = (  -0.0294628  -0.2062395   0.2062395), wk =   0.0034722
        k(   76) = (   0.0000000  -0.1767767   0.1767767), wk =   0.0017361
        k(   77) = (   0.2357023   0.0000000   0.0000000), wk =   0.0008681
        k(   78) = (   0.2651650   0.0294628  -0.0294628), wk =   0.0034722
        k(   79) = (   0.2946278   0.0589256  -0.0589256), wk =   0.0034722
        k(   80) = (   0.3240906   0.0883883  -0.0883883), wk =   0.0034722
        k(   81) = (   0.3535534   0.1178511  -0.1178511), wk =   0.0034722
        k(   82) = (   0.3830162   0.1473139  -0.1473139), wk =   0.0034722
        k(   83) = (   0.4124790   0.1767767  -0.1767767), wk =   0.0034722
        k(   84) = (   0.4419417   0.2062395  -0.2062395), wk =   0.0034722
        k(   85) = (  -0.2357023  -0.4714045   0.4714045), wk =   0.0034722
        k(   86) = (  -0.2062395  -0.4419417   0.4419417), wk =   0.0034722
        k(   87) = (  -0.1767767  -0.4124790   0.4124790), wk =   0.0034722
        k(   88) = (  -0.1473139  -0.3830162   0.3830162), wk =   0.0034722
        k(   89) = (  -0.1178511  -0.3535534   0.3535534), wk =   0.0034722
        k(   90) = (  -0.0883883  -0.3240906   0.3240906), wk =   0.0034722
        k(   91) = (  -0.0589256  -0.2946278   0.2946278), wk =   0.0034722
        k(   92) = (  -0.0294628  -0.2651650   0.2651650), wk =   0.0034722
        k(   93) = (   0.0000000  -0.2357023   0.2357023), wk =   0.0017361
        k(   94) = (   0.2946278   0.0000000   0.0000000), wk =   0.0008681
        k(   95) = (   0.3240906   0.0294628  -0.0294628), wk =   0.0034722
        k(   96) = (   0.3535534   0.0589256  -0.0589256), wk =   0.0034722
        k(   97) = (   0.3830162   0.0883883  -0.0883883), wk =   0.0034722
        k(   98) = (   0.4124790   0.1178511  -0.1178511), wk =   0.0034722
        k(   99) = (   0.4419417   0.1473139  -0.1473139), wk =   0.0034722
        k(  100) = (   0.4714045   0.1767767  -0.1767767), wk =   0.0034722
        k(  101) = (  -0.2062395  -0.5008673   0.5008673), wk =   0.0034722
        k(  102) = (  -0.1767767  -0.4714045   0.4714045), wk =   0.0034722
        k(  103) = (  -0.1473139  -0.4419417   0.4419417), wk =   0.0034722
        k(  104) = (  -0.1178511  -0.4124790   0.4124790), wk =   0.0034722
        k(  105) = (  -0.0883883  -0.3830162   0.3830162), wk =   0.0034722
        k(  106) = (  -0.0589256  -0.3535534   0.3535534), wk =   0.0034722
        k(  107) = (  -0.0294628  -0.3240906   0.3240906), wk =   0.0034722
        k(  108) = (  -0.0000000  -0.2946278   0.2946278), wk =   0.0017361
        k(  109) = (   0.3535534   0.0000000   0.0000000), wk =   0.0008681
        k(  110) = (   0.3830162   0.0294628  -0.0294628), wk =   0.0034722
        k(  111) = (   0.4124790   0.0589256  -0.0589256), wk =   0.0034722
        k(  112) = (   0.4419417   0.0883883  -0.0883883), wk =   0.0034722
        k(  113) = (   0.4714045   0.1178511  -0.1178511), wk =   0.0034722
        k(  114) = (   0.5008673   0.1473139  -0.1473139), wk =   0.0034722
        k(  115) = (  -0.1767767  -0.5303301   0.5303301), wk =   0.0034722
        k(  116) = (  -0.1473139  -0.5008673   0.5008673), wk =   0.0034722
        k(  117) = (  -0.1178511  -0.4714045   0.4714045), wk =   0.0034722
        k(  118) = (  -0.0883883  -0.4419417   0.4419417), wk =   0.0034722
        k(  119) = (  -0.0589256  -0.4124790   0.4124790), wk =   0.0034722
        k(  120) = (  -0.0294628  -0.3830162   0.3830162), wk =   0.0034722
        k(  121) = (   0.0000000  -0.3535534   0.3535534), wk =   0.0017361
        k(  122) = (   0.4124790   0.0000000   0.0000000), wk =   0.0008681
        k(  123) = (   0.4419417   0.0294628  -0.0294628), wk =   0.0034722
        k(  124) = (   0.4714045   0.0589256  -0.0589256), wk =   0.0034722
        k(  125) = (   0.5008673   0.0883883  -0.0883883), wk =   0.0034722
        k(  126) = (   0.5303301   0.1178511  -0.1178511), wk =   0.0034722
        k(  127) = (  -0.1473139  -0.5597929   0.5597929), wk =   0.0034722
        k(  128) = (  -0.1178511  -0.5303301   0.5303301), wk =   0.0034722
        k(  129) = (  -0.0883883  -0.5008673   0.5008673), wk =   0.0034722
        k(  130) = (  -0.0589256  -0.4714045   0.4714045), wk =   0.0034722
        k(  131) = (  -0.0294628  -0.4419417   0.4419417), wk =   0.0034722
        k(  132) = (   0.0000000  -0.4124790   0.4124790), wk =   0.0017361
        k(  133) = (   0.4714045   0.0000000   0.0000000), wk =   0.0008681
        k(  134) = (   0.5008673   0.0294628  -0.0294628), wk =   0.0034722
        k(  135) = (   0.5303301   0.0589256  -0.0589256), wk =   0.0034722
        k(  136) = (   0.5597929   0.0883883  -0.0883883), wk =   0.0034722
        k(  137) = (  -0.1178511  -0.5892557   0.5892557), wk =   0.0034722
        k(  138) = (  -0.0883883  -0.5597929   0.5597929), wk =   0.0034722
        k(  139) = (  -0.0589256  -0.5303301   0.5303301), wk =   0.0034722
        k(  140) = (  -0.0294628  -0.5008673   0.5008673), wk =   0.0034722
        k(  141) = (  -0.0000000  -0.4714045   0.4714045), wk =   0.0017361
        k(  142) = (   0.5303301   0.0000000   0.0000000), wk =   0.0008681
        k(  143) = (   0.5597929   0.0294628  -0.0294628), wk =   0.0034722
        k(  144) = (   0.5892557   0.0589256  -0.0589256), wk =   0.0034722
        k(  145) = (  -0.0883883  -0.6187184   0.6187184), wk =   0.0034722
        k(  146) = (  -0.0589256  -0.5892557   0.5892557), wk =   0.0034722
        k(  147) = (  -0.0294628  -0.5597929   0.5597929), wk =   0.0034722
        k(  148) = (   0.0000000  -0.5303301   0.5303301), wk =   0.0017361
        k(  149) = (   0.5892557   0.0000000   0.0000000), wk =   0.0008681
        k(  150) = (   0.6187184   0.0294628  -0.0294628), wk =   0.0034722
        k(  151) = (  -0.0589256  -0.6481812   0.6481812), wk =   0.0034722
        k(  152) = (  -0.0294628  -0.6187184   0.6187184), wk =   0.0034722
        k(  153) = (   0.0000000  -0.5892557   0.5892557), wk =   0.0017361
        k(  154) = (   0.6481812   0.0000000   0.0000000), wk =   0.0008681
        k(  155) = (  -0.0294628  -0.6776440   0.6776440), wk =   0.0034722
        k(  156) = (  -0.0000000  -0.6481812   0.6481812), wk =   0.0017361
        k(  157) = (  -0.7071068   0.0000000   0.0000000), wk =   0.0004340
        k(  158) = (   0.1178511   0.0589256  -0.0000000), wk =   0.0034722
        k(  159) = (   0.1473139   0.0883883  -0.0294628), wk =   0.0069444
        k(  160) = (   0.1767767   0.1178511  -0.0589256), wk =   0.0069444
        k(  161) = (   0.2062395   0.1473139  -0.0883883), wk =   0.0069444
        k(  162) = (   0.2357023   0.1767767  -0.1178511), wk =   0.0069444
        k(  163) = (   0.2651650   0.2062395  -0.1473139), wk =   0.0069444
        k(  164) = (   0.2946278   0.2357023  -0.1767767), wk =   0.0069444
        k(  165) = (   0.3240906   0.2651650  -0.2062395), wk =   0.0069444
        k(  166) = (   0.3535534   0.2946278  -0.2357023), wk =   0.0069444
        k(  167) = (  -0.3240906  -0.3830162   0.4419417), wk =   0.0069444
        k(  168) = (  -0.2946278  -0.3535534   0.4124790), wk =   0.0034722
        k(  169) = (   0.1767767   0.0589256   0.0000000), wk =   0.0034722
        k(  170) = (   0.2062395   0.0883883  -0.0294628), wk =   0.0069444
        k(  171) = (   0.2357023   0.1178511  -0.0589256), wk =   0.0069444
        k(  172) = (   0.2651650   0.1473139  -0.0883883), wk =   0.0069444
        k(  173) = (   0.2946278   0.1767767  -0.1178511), wk =   0.0069444
        k(  174) = (   0.3240906   0.2062395  -0.1473139), wk =   0.0069444
        k(  175) = (   0.3535534   0.2357023  -0.1767767), wk =   0.0069444
        k(  176) = (   0.3830162   0.2651650  -0.2062395), wk =   0.0069444
        k(  177) = (  -0.2946278  -0.4124790   0.4714045), wk =   0.0069444
        k(  178) = (  -0.2651650  -0.3830162   0.4419417), wk =   0.0069444
        k(  179) = (  -0.2357023  -0.3535534   0.4124790), wk =   0.0069444
        k(  180) = (  -0.2062395  -0.3240906   0.3830162), wk =   0.0069444
        k(  181) = (  -0.1767767  -0.2946278   0.3535534), wk =   0.0069444
        k(  182) = (  -0.1473139  -0.2651650   0.3240906), wk =   0.0069444
        k(  183) = (  -0.1178511  -0.2357023   0.2946278), wk =   0.0069444
        k(  184) = (  -0.0883883  -0.2062395   0.2651650), wk =   0.0069444
        k(  185) = (  -0.0589256  -0.1767767   0.2357023), wk =   0.0069444
        k(  186) = (  -0.0294628  -0.1473139   0.2062395), wk =   0.0069444
        k(  187) = (  -0.0000000  -0.1178511   0.1767767), wk =   0.0034722
        k(  188) = (   0.2357023   0.0589256   0.0000000), wk =   0.0034722
        k(  189) = (   0.2651650   0.0883883  -0.0294628), wk =   0.0069444
        k(  190) = (   0.2946278   0.1178511  -0.0589256), wk =   0.0069444
        k(  191) = (   0.3240906   0.1473139  -0.0883883), wk =   0.0069444
        k(  192) = (   0.3535534   0.1767767  -0.1178511), wk =   0.0069444
        k(  193) = (   0.3830162   0.2062395  -0.1473139), wk =   0.0069444
        k(  194) = (   0.4124790   0.2357023  -0.1767767), wk =   0.0069444
        k(  195) = (  -0.2651650  -0.4419417   0.5008673), wk =   0.0069444
        k(  196) = (  -0.2357023  -0.4124790   0.4714045), wk =   0.0069444
        k(  197) = (  -0.2062395  -0.3830162   0.4419417), wk =   0.0069444
        k(  198) = (  -0.1767767  -0.3535534   0.4124790), wk =   0.0069444
        k(  199) = (  -0.1473139  -0.3240906   0.3830162), wk =   0.0069444
        k(  200) = (  -0.1178511  -0.2946278   0.3535534), wk =   0.0069444
        k(  201) = (  -0.0883883  -0.2651650   0.3240906), wk =   0.0069444
        k(  202) = (  -0.0589256  -0.2357023   0.2946278), wk =   0.0069444
        k(  203) = (  -0.0294628  -0.2062395   0.2651650), wk =   0.0069444
        k(  204) = (  -0.0000000  -0.1767767   0.2357023), wk =   0.0034722
        k(  205) = (   0.2946278   0.0589256   0.0000000), wk =   0.0034722
        k(  206) = (   0.3240906   0.0883883  -0.0294628), wk =   0.0069444
        k(  207) = (   0.3535534   0.1178511  -0.0589256), wk =   0.0069444
        k(  208) = (   0.3830162   0.1473139  -0.0883883), wk =   0.0069444
        k(  209) = (   0.4124790   0.1767767  -0.1178511), wk =   0.0069444
        k(  210) = (   0.4419417   0.2062395  -0.1473139), wk =   0.0069444
        k(  211) = (  -0.2357023  -0.4714045   0.5303301), wk =   0.0069444
        k(  212) = (  -0.2062395  -0.4419417   0.5008673), wk =   0.0069444
        k(  213) = (  -0.1767767  -0.4124790   0.4714045), wk =   0.0069444
        k(  214) = (  -0.1473139  -0.3830162   0.4419417), wk =   0.0069444
        k(  215) = (  -0.1178511  -0.3535534   0.4124790), wk =   0.0069444
        k(  216) = (  -0.0883883  -0.3240906   0.3830162), wk =   0.0069444
        k(  217) = (  -0.0589256  -0.2946278   0.3535534), wk =   0.0069444
        k(  218) = (  -0.0294628  -0.2651650   0.3240906), wk =   0.0069444
        k(  219) = (   0.0000000  -0.2357023   0.2946278), wk =   0.0034722
        k(  220) = (   0.3535534   0.0589256   0.0000000), wk =   0.0034722
        k(  221) = (   0.3830162   0.0883883  -0.0294628), wk =   0.0069444
        k(  222) = (   0.4124790   0.1178511  -0.0589256), wk =   0.0069444
        k(  223) = (   0.4419417   0.1473139  -0.0883883), wk =   0.0069444
        k(  224) = (   0.4714045   0.1767767  -0.1178511), wk =   0.0069444
        k(  225) = (  -0.2062395  -0.5008673   0.5597929), wk =   0.0069444
        k(  226) = (  -0.1767767  -0.4714045   0.5303301), wk =   0.0069444
        k(  227) = (  -0.1473139  -0.4419417   0.5008673), wk =   0.0069444
        k(  228) = (  -0.1178511  -0.4124790   0.4714045), wk =   0.0069444
        k(  229) = (  -0.0883883  -0.3830162   0.4419417), wk =   0.0069444
        k(  230) = (  -0.0589256  -0.3535534   0.4124790), wk =   0.0069444
        k(  231) = (  -0.0294628  -0.3240906   0.3830162), wk =   0.0069444
        k(  232) = (  -0.0000000  -0.2946278   0.3535534), wk =   0.0034722
        k(  233) = (   0.4124790   0.0589256   0.0000000), wk =   0.0034722
        k(  234) = (   0.4419417   0.0883883  -0.0294628), wk =   0.0069444
        k(  235) = (   0.4714045   0.1178511  -0.0589256), wk =   0.0069444
        k(  236) = (   0.5008673   0.1473139  -0.0883883), wk =   0.0069444
        k(  237) = (  -0.1767767  -0.5303301   0.5892557), wk =   0.0069444
        k(  238) = (  -0.1473139  -0.5008673   0.5597929), wk =   0.0069444
        k(  239) = (  -0.1178511  -0.4714045   0.5303301), wk =   0.0069444
        k(  240) = (  -0.0883883  -0.4419417   0.5008673), wk =   0.0069444
        k(  241) = (  -0.0589256  -0.4124790   0.4714045), wk =   0.0069444
        k(  242) = (  -0.0294628  -0.3830162   0.4419417), wk =   0.0069444
        k(  243) = (   0.0000000  -0.3535534   0.4124790), wk =   0.0034722
        k(  244) = (   0.4714045   0.0589256  -0.0000000), wk =   0.0034722
        k(  245) = (   0.5008673   0.0883883  -0.0294628), wk =   0.0069444
        k(  246) = (   0.5303301   0.1178511  -0.0589256), wk =   0.0069444
        k(  247) = (  -0.1473139  -0.5597929   0.6187184), wk =   0.0069444
        k(  248) = (  -0.1178511  -0.5303301   0.5892557), wk =   0.0069444
        k(  249) = (  -0.0883883  -0.5008673   0.5597929), wk =   0.0069444
        k(  250) = (  -0.0589256  -0.4714045   0.5303301), wk =   0.0069444
        k(  251) = (  -0.0294628  -0.4419417   0.5008673), wk =   0.0069444
        k(  252) = (   0.0000000  -0.4124790   0.4714045), wk =   0.0034722
        k(  253) = (   0.5303301   0.0589256   0.0000000), wk =   0.0034722
        k(  254) = (   0.5597929   0.0883883  -0.0294628), wk =   0.0069444
        k(  255) = (  -0.1178511  -0.5892557   0.6481812), wk =   0.0069444
        k(  256) = (  -0.0883883  -0.5597929   0.6187184), wk =   0.0069444
        k(  257) = (  -0.0589256  -0.5303301   0.5892557), wk =   0.0069444
        k(  258) = (  -0.0294628  -0.5008673   0.5597929), wk =   0.0069444
        k(  259) = (  -0.0000000  -0.4714045   0.5303301), wk =   0.0034722
        k(  260) = (   0.5892557   0.0589256   0.0000000), wk =   0.0034722
        k(  261) = (  -0.0883883  -0.6187184   0.6776440), wk =   0.0069444
        k(  262) = (  -0.0589256  -0.5892557   0.6481812), wk =   0.0069444
        k(  263) = (  -0.0294628  -0.5597929   0.6187184), wk =   0.0069444
        k(  264) = (   0.0000000  -0.5303301   0.5892557), wk =   0.0034722
        k(  265) = (  -0.0589256  -0.6481812   0.7071068), wk =   0.0034722
        k(  266) = (  -0.0294628  -0.6187184   0.6776440), wk =   0.0069444
        k(  267) = (   0.0000000  -0.5892557   0.6481812), wk =   0.0034722
        k(  268) = (  -0.7071068   0.0589256   0.0000000), wk =   0.0017361
        k(  269) = (   0.2357023   0.1178511  -0.0000000), wk =   0.0034722
        k(  270) = (   0.2651650   0.1473139  -0.0294628), wk =   0.0069444
        k(  271) = (   0.2946278   0.1767767  -0.0589256), wk =   0.0069444
        k(  272) = (   0.3240906   0.2062395  -0.0883883), wk =   0.0069444
        k(  273) = (   0.3535534   0.2357023  -0.1178511), wk =   0.0069444
        k(  274) = (   0.3830162   0.2651650  -0.1473139), wk =   0.0069444
        k(  275) = (  -0.2946278  -0.4124790   0.5303301), wk =   0.0069444
        k(  276) = (  -0.2651650  -0.3830162   0.5008673), wk =   0.0069444
        k(  277) = (  -0.2357023  -0.3535534   0.4714045), wk =   0.0034722
        k(  278) = (   0.2946278   0.1178511   0.0000000), wk =   0.0034722
        k(  279) = (   0.3240906   0.1473139  -0.0294628), wk =   0.0069444
        k(  280) = (   0.3535534   0.1767767  -0.0589256), wk =   0.0069444
        k(  281) = (   0.3830162   0.2062395  -0.0883883), wk =   0.0069444
        k(  282) = (   0.4124790   0.2357023  -0.1178511), wk =   0.0069444
        k(  283) = (  -0.2651650  -0.4419417   0.5597929), wk =   0.0069444
        k(  284) = (  -0.2357023  -0.4124790   0.5303301), wk =   0.0069444
        k(  285) = (  -0.2062395  -0.3830162   0.5008673), wk =   0.0069444
        k(  286) = (  -0.1767767  -0.3535534   0.4714045), wk =   0.0069444
        k(  287) = (  -0.1473139  -0.3240906   0.4419417), wk =   0.0069444
        k(  288) = (  -0.1178511  -0.2946278   0.4124790), wk =   0.0069444
        k(  289) = (  -0.0883883  -0.2651650   0.3830162), wk =   0.0069444
        k(  290) = (  -0.0589256  -0.2357023   0.3535534), wk =   0.0069444
        k(  291) = (  -0.0294628  -0.2062395   0.3240906), wk =   0.0069444
        k(  292) = (   0.0000000  -0.1767767   0.2946278), wk =   0.0034722
        k(  293) = (   0.3535534   0.1178511   0.0000000), wk =   0.0034722
        k(  294) = (   0.3830162   0.1473139  -0.0294628), wk =   0.0069444
        k(  295) = (   0.4124790   0.1767767  -0.0589256), wk =   0.0069444
        k(  296) = (   0.4419417   0.2062395  -0.0883883), wk =   0.0069444
        k(  297) = (  -0.2357023  -0.4714045   0.5892557), wk =   0.0069444
        k(  298) = (  -0.2062395  -0.4419417   0.5597929), wk =   0.0069444
        k(  299) = (  -0.1767767  -0.4124790   0.5303301), wk =   0.0069444
        k(  300) = (  -0.1473139  -0.3830162   0.5008673), wk =   0.0069444
        k(  301) = (  -0.1178511  -0.3535534   0.4714045), wk =   0.0069444
        k(  302) = (  -0.0883883  -0.3240906   0.4419417), wk =   0.0069444
        k(  303) = (  -0.0589256  -0.2946278   0.4124790), wk =   0.0069444
        k(  304) = (  -0.0294628  -0.2651650   0.3830162), wk =   0.0069444
        k(  305) = (   0.0000000  -0.2357023   0.3535534), wk =   0.0034722
        k(  306) = (   0.4124790   0.1178511   0.0000000), wk =   0.0034722
        k(  307) = (   0.4419417   0.1473139  -0.0294628), wk =   0.0069444
        k(  308) = (   0.4714045   0.1767767  -0.0589256), wk =   0.0069444
        k(  309) = (  -0.2062395  -0.5008673   0.6187184), wk =   0.0069444
        k(  310) = (  -0.1767767  -0.4714045   0.5892557), wk =   0.0069444
        k(  311) = (  -0.1473139  -0.4419417   0.5597929), wk =   0.0069444
        k(  312) = (  -0.1178511  -0.4124790   0.5303301), wk =   0.0069444
        k(  313) = (  -0.0883883  -0.3830162   0.5008673), wk =   0.0069444
        k(  314) = (  -0.0589256  -0.3535534   0.4714045), wk =   0.0069444
        k(  315) = (  -0.0294628  -0.3240906   0.4419417), wk =   0.0069444
        k(  316) = (  -0.0000000  -0.2946278   0.4124790), wk =   0.0034722
        k(  317) = (   0.4714045   0.1178511   0.0000000), wk =   0.0034722
        k(  318) = (   0.5008673   0.1473139  -0.0294628), wk =   0.0069444
        k(  319) = (  -0.1767767  -0.5303301   0.6481812), wk =   0.0069444
        k(  320) = (  -0.1473139  -0.5008673   0.6187184), wk =   0.0069444
        k(  321) = (  -0.1178511  -0.4714045   0.5892557), wk =   0.0069444
        k(  322) = (  -0.0883883  -0.4419417   0.5597929), wk =   0.0069444
        k(  323) = (  -0.0589256  -0.4124790   0.5303301), wk =   0.0069444
        k(  324) = (  -0.0294628  -0.3830162   0.5008673), wk =   0.0069444
        k(  325) = (  -0.0000000  -0.3535534   0.4714045), wk =   0.0034722
        k(  326) = (   0.5303301   0.1178511   0.0000000), wk =   0.0034722
        k(  327) = (  -0.1473139  -0.5597929   0.6776440), wk =   0.0069444
        k(  328) = (  -0.1178511  -0.5303301   0.6481812), wk =   0.0069444
        k(  329) = (  -0.0883883  -0.5008673   0.6187184), wk =   0.0069444
        k(  330) = (  -0.0589256  -0.4714045   0.5892557), wk =   0.0069444
        k(  331) = (  -0.0294628  -0.4419417   0.5597929), wk =   0.0069444
        k(  332) = (   0.0000000  -0.4124790   0.5303301), wk =   0.0034722
        k(  333) = (  -0.1178511  -0.5892557   0.7071068), wk =   0.0034722
        k(  334) = (  -0.0883883  -0.5597929   0.6776440), wk =   0.0069444
        k(  335) = (  -0.0589256  -0.5303301   0.6481812), wk =   0.0069444
        k(  336) = (  -0.0294628  -0.5008673   0.6187184), wk =   0.0069444
        k(  337) = (  -0.0000000  -0.4714045   0.5892557), wk =   0.0034722
        k(  338) = (  -0.0589256  -0.5892557   0.7071068), wk =   0.0034722
        k(  339) = (  -0.0294628  -0.5597929   0.6776440), wk =   0.0069444
        k(  340) = (  -0.0000000  -0.5303301   0.6481812), wk =   0.0034722
        k(  341) = (  -0.7071068   0.1178511   0.0000000), wk =   0.0017361
        k(  342) = (   0.3535534   0.1767767   0.0000000), wk =   0.0034722
        k(  343) = (   0.3830162   0.2062395  -0.0294628), wk =   0.0069444
        k(  344) = (   0.4124790   0.2357023  -0.0589256), wk =   0.0069444
        k(  345) = (  -0.2651650  -0.4419417   0.6187184), wk =   0.0069444
        k(  346) = (  -0.2357023  -0.4124790   0.5892557), wk =   0.0069444
        k(  347) = (  -0.2062395  -0.3830162   0.5597929), wk =   0.0069444
        k(  348) = (  -0.1767767  -0.3535534   0.5303301), wk =   0.0034722
        k(  349) = (   0.4124790   0.1767767   0.0000000), wk =   0.0034722
        k(  350) = (   0.4419417   0.2062395  -0.0294628), wk =   0.0069444
        k(  351) = (  -0.2357023  -0.4714045   0.6481812), wk =   0.0069444
        k(  352) = (  -0.2062395  -0.4419417   0.6187184), wk =   0.0069444
        k(  353) = (  -0.1767767  -0.4124790   0.5892557), wk =   0.0069444
        k(  354) = (  -0.1473139  -0.3830162   0.5597929), wk =   0.0069444
        k(  355) = (  -0.1178511  -0.3535534   0.5303301), wk =   0.0069444
        k(  356) = (  -0.0883883  -0.3240906   0.5008673), wk =   0.0069444
        k(  357) = (  -0.0589256  -0.2946278   0.4714045), wk =   0.0069444
        k(  358) = (  -0.0294628  -0.2651650   0.4419417), wk =   0.0069444
        k(  359) = (   0.0000000  -0.2357023   0.4124790), wk =   0.0034722
        k(  360) = (   0.4714045   0.1767767   0.0000000), wk =   0.0034722
        k(  361) = (  -0.2062395  -0.5008673   0.6776440), wk =   0.0069444
        k(  362) = (  -0.1767767  -0.4714045   0.6481812), wk =   0.0069444
        k(  363) = (  -0.1473139  -0.4419417   0.6187184), wk =   0.0069444
        k(  364) = (  -0.1178511  -0.4124790   0.5892557), wk =   0.0069444
        k(  365) = (  -0.0883883  -0.3830162   0.5597929), wk =   0.0069444
        k(  366) = (  -0.0589256  -0.3535534   0.5303301), wk =   0.0069444
        k(  367) = (  -0.0294628  -0.3240906   0.5008673), wk =   0.0069444
        k(  368) = (  -0.0000000  -0.2946278   0.4714045), wk =   0.0034722
        k(  369) = (  -0.1767767  -0.5303301   0.7071068), wk =   0.0034722
        k(  370) = (  -0.1473139  -0.5008673   0.6776440), wk =   0.0069444
        k(  371) = (  -0.1178511  -0.4714045   0.6481812), wk =   0.0069444
        k(  372) = (  -0.0883883  -0.4419417   0.6187184), wk =   0.0069444
        k(  373) = (  -0.0589256  -0.4124790   0.5892557), wk =   0.0069444
        k(  374) = (  -0.0294628  -0.3830162   0.5597929), wk =   0.0069444
        k(  375) = (   0.0000000  -0.3535534   0.5303301), wk =   0.0034722
        k(  376) = (  -0.1178511  -0.5303301   0.7071068), wk =   0.0034722
        k(  377) = (  -0.0883883  -0.5008673   0.6776440), wk =   0.0069444
        k(  378) = (  -0.0589256  -0.4714045   0.6481812), wk =   0.0069444
        k(  379) = (  -0.0294628  -0.4419417   0.6187184), wk =   0.0069444
        k(  380) = (   0.0000000  -0.4124790   0.5892557), wk =   0.0034722
        k(  381) = (  -0.0589256  -0.5303301   0.7071068), wk =   0.0034722
        k(  382) = (  -0.0294628  -0.5008673   0.6776440), wk =   0.0069444
        k(  383) = (  -0.0000000  -0.4714045   0.6481812), wk =   0.0034722
        k(  384) = (  -0.7071068   0.1767767   0.0000000), wk =   0.0017361
        k(  385) = (  -0.2357023  -0.4714045   0.7071068), wk =   0.0034722
        k(  386) = (  -0.2062395  -0.4419417   0.6776440), wk =   0.0069444
        k(  387) = (  -0.1767767  -0.4124790   0.6481812), wk =   0.0069444
        k(  388) = (  -0.1473139  -0.3830162   0.6187184), wk =   0.0069444
        k(  389) = (  -0.1178511  -0.3535534   0.5892557), wk =   0.0034722
        k(  390) = (  -0.1767767  -0.4714045   0.7071068), wk =   0.0034722
        k(  391) = (  -0.1473139  -0.4419417   0.6776440), wk =   0.0069444
        k(  392) = (  -0.1178511  -0.4124790   0.6481812), wk =   0.0069444
        k(  393) = (  -0.0883883  -0.3830162   0.6187184), wk =   0.0069444
        k(  394) = (  -0.0589256  -0.3535534   0.5892557), wk =   0.0069444
        k(  395) = (  -0.0294628  -0.3240906   0.5597929), wk =   0.0069444
        k(  396) = (   0.0000000  -0.2946278   0.5303301), wk =   0.0034722
        k(  397) = (  -0.1178511  -0.4714045   0.7071068), wk =   0.0034722
        k(  398) = (  -0.0883883  -0.4419417   0.6776440), wk =   0.0069444
        k(  399) = (  -0.0589256  -0.4124790   0.6481812), wk =   0.0069444
        k(  400) = (  -0.0294628  -0.3830162   0.6187184), wk =   0.0069444
        k(  401) = (   0.0000000  -0.3535534   0.5892557), wk =   0.0034722
        k(  402) = (  -0.0589256  -0.4714045   0.7071068), wk =   0.0034722
        k(  403) = (  -0.0294628  -0.4419417   0.6776440), wk =   0.0069444
        k(  404) = (   0.0000000  -0.4124790   0.6481812), wk =   0.0034722
        k(  405) = (  -0.7071068   0.2357023   0.0000000), wk =   0.0017361
        k(  406) = (  -0.1178511  -0.4124790   0.7071068), wk =   0.0034722
        k(  407) = (  -0.0883883  -0.3830162   0.6776440), wk =   0.0069444
        k(  408) = (  -0.0589256  -0.3535534   0.6481812), wk =   0.0034722
        k(  409) = (  -0.0589256  -0.4124790   0.7071068), wk =   0.0034722
        k(  410) = (  -0.0294628  -0.3830162   0.6776440), wk =   0.0069444
        k(  411) = (  -0.0000000  -0.3535534   0.6481812), wk =   0.0034722
        k(  412) = (  -0.7071068   0.2946278  -0.0000000), wk =   0.0017361
        k(  413) = (  -0.7071068   0.3535534   0.0000000), wk =   0.0008681

                       cryst. coord.
        k(    1) = (   0.0000000   0.0000000   0.0000000), wk =   0.0001447
        k(    2) = (   0.0000000   0.0000000   0.0416667), wk =   0.0011574
        k(    3) = (   0.0000000   0.0000000   0.0833333), wk =   0.0011574
        k(    4) = (   0.0000000   0.0000000   0.1250000), wk =   0.0011574
        k(    5) = (   0.0000000   0.0000000   0.1666667), wk =   0.0011574
        k(    6) = (   0.0000000   0.0000000   0.2083333), wk =   0.0011574
        k(    7) = (   0.0000000   0.0000000   0.2500000), wk =   0.0011574
        k(    8) = (   0.0000000   0.0000000   0.2916667), wk =   0.0011574
        k(    9) = (   0.0000000   0.0000000   0.3333333), wk =   0.0011574
        k(   10) = (   0.0000000   0.0000000   0.3750000), wk =   0.0011574
        k(   11) = (   0.0000000   0.0000000   0.4166667), wk =   0.0011574
        k(   12) = (   0.0000000   0.0000000   0.4583333), wk =   0.0011574
        k(   13) = (   0.0000000   0.0000000  -0.5000000), wk =   0.0005787
        k(   14) = (   0.0000000   0.0416667   0.0416667), wk =   0.0008681
        k(   15) = (   0.0000000   0.0416667   0.0833333), wk =   0.0034722
        k(   16) = (   0.0000000   0.0416667   0.1250000), wk =   0.0034722
        k(   17) = (   0.0000000   0.0416667   0.1666667), wk =   0.0034722
        k(   18) = (   0.0000000   0.0416667   0.2083333), wk =   0.0034722
        k(   19) = (   0.0000000   0.0416667   0.2500000), wk =   0.0034722
        k(   20) = (   0.0000000   0.0416667   0.2916667), wk =   0.0034722
        k(   21) = (   0.0000000   0.0416667   0.3333333), wk =   0.0034722
        k(   22) = (   0.0000000   0.0416667   0.3750000), wk =   0.0034722
        k(   23) = (   0.0000000   0.0416667   0.4166667), wk =   0.0034722
        k(   24) = (   0.0000000   0.0416667   0.4583333), wk =   0.0034722
        k(   25) = (   0.0000000   0.0416667  -0.5000000), wk =   0.0034722
        k(   26) = (   0.0000000   0.0416667  -0.4583333), wk =   0.0034722
        k(   27) = (   0.0000000   0.0416667  -0.4166667), wk =   0.0034722
        k(   28) = (   0.0000000   0.0416667  -0.3750000), wk =   0.0034722
        k(   29) = (   0.0000000   0.0416667  -0.3333333), wk =   0.0034722
        k(   30) = (   0.0000000   0.0416667  -0.2916667), wk =   0.0034722
        k(   31) = (   0.0000000   0.0416667  -0.2500000), wk =   0.0034722
        k(   32) = (   0.0000000   0.0416667  -0.2083333), wk =   0.0034722
        k(   33) = (   0.0000000   0.0416667  -0.1666667), wk =   0.0034722
        k(   34) = (   0.0000000   0.0416667  -0.1250000), wk =   0.0034722
        k(   35) = (   0.0000000   0.0416667  -0.0833333), wk =   0.0034722
        k(   36) = (   0.0000000   0.0416667  -0.0416667), wk =   0.0017361
        k(   37) = (   0.0000000   0.0833333   0.0833333), wk =   0.0008681
        k(   38) = (   0.0000000   0.0833333   0.1250000), wk =   0.0034722
        k(   39) = (   0.0000000   0.0833333   0.1666667), wk =   0.0034722
        k(   40) = (   0.0000000   0.0833333   0.2083333), wk =   0.0034722
        k(   41) = (   0.0000000   0.0833333   0.2500000), wk =   0.0034722
        k(   42) = (   0.0000000   0.0833333   0.2916667), wk =   0.0034722
        k(   43) = (   0.0000000   0.0833333   0.3333333), wk =   0.0034722
        k(   44) = (   0.0000000   0.0833333   0.3750000), wk =   0.0034722
        k(   45) = (   0.0000000   0.0833333   0.4166667), wk =   0.0034722
        k(   46) = (   0.0000000   0.0833333   0.4583333), wk =   0.0034722
        k(   47) = (   0.0000000   0.0833333  -0.5000000), wk =   0.0034722
        k(   48) = (   0.0000000   0.0833333  -0.4583333), wk =   0.0034722
        k(   49) = (   0.0000000   0.0833333  -0.4166667), wk =   0.0034722
        k(   50) = (   0.0000000   0.0833333  -0.3750000), wk =   0.0034722
        k(   51) = (   0.0000000   0.0833333  -0.3333333), wk =   0.0034722
        k(   52) = (   0.0000000   0.0833333  -0.2916667), wk =   0.0034722
        k(   53) = (   0.0000000   0.0833333  -0.2500000), wk =   0.0034722
        k(   54) = (   0.0000000   0.0833333  -0.2083333), wk =   0.0034722
        k(   55) = (   0.0000000   0.0833333  -0.1666667), wk =   0.0034722
        k(   56) = (   0.0000000   0.0833333  -0.1250000), wk =   0.0034722
        k(   57) = (   0.0000000   0.0833333  -0.0833333), wk =   0.0017361
        k(   58) = (   0.0000000   0.1250000   0.1250000), wk =   0.0008681
        k(   59) = (   0.0000000   0.1250000   0.1666667), wk =   0.0034722
        k(   60) = (   0.0000000   0.1250000   0.2083333), wk =   0.0034722
        k(   61) = (   0.0000000   0.1250000   0.2500000), wk =   0.0034722
        k(   62) = (   0.0000000   0.1250000   0.2916667), wk =   0.0034722
        k(   63) = (   0.0000000   0.1250000   0.3333333), wk =   0.0034722
        k(   64) = (   0.0000000   0.1250000   0.3750000), wk =   0.0034722
        k(   65) = (   0.0000000   0.1250000   0.4166667), wk =   0.0034722
        k(   66) = (   0.0000000   0.1250000   0.4583333), wk =   0.0034722
        k(   67) = (   0.0000000   0.1250000  -0.5000000), wk =   0.0034722
        k(   68) = (   0.0000000   0.1250000  -0.4583333), wk =   0.0034722
        k(   69) = (   0.0000000   0.1250000  -0.4166667), wk =   0.0034722
        k(   70) = (   0.0000000   0.1250000  -0.3750000), wk =   0.0034722
        k(   71) = (   0.0000000   0.1250000  -0.3333333), wk =   0.0034722
        k(   72) = (   0.0000000   0.1250000  -0.2916667), wk =   0.0034722
        k(   73) = (   0.0000000   0.1250000  -0.2500000), wk =   0.0034722
        k(   74) = (   0.0000000   0.1250000  -0.2083333), wk =   0.0034722
        k(   75) = (   0.0000000   0.1250000  -0.1666667), wk =   0.0034722
        k(   76) = (   0.0000000   0.1250000  -0.1250000), wk =   0.0017361
        k(   77) = (   0.0000000   0.1666667   0.1666667), wk =   0.0008681
        k(   78) = (   0.0000000   0.1666667   0.2083333), wk =   0.0034722
        k(   79) = (   0.0000000   0.1666667   0.2500000), wk =   0.0034722
        k(   80) = (   0.0000000   0.1666667   0.2916667), wk =   0.0034722
        k(   81) = (   0.0000000   0.1666667   0.3333333), wk =   0.0034722
        k(   82) = (   0.0000000   0.1666667   0.3750000), wk =   0.0034722
        k(   83) = (   0.0000000   0.1666667   0.4166667), wk =   0.0034722
        k(   84) = (   0.0000000   0.1666667   0.4583333), wk =   0.0034722
        k(   85) = (   0.0000000   0.1666667  -0.5000000), wk =   0.0034722
        k(   86) = (   0.0000000   0.1666667  -0.4583333), wk =   0.0034722
        k(   87) = (   0.0000000   0.1666667  -0.4166667), wk =   0.0034722
        k(   88) = (   0.0000000   0.1666667  -0.3750000), wk =   0.0034722
        k(   89) = (   0.0000000   0.1666667  -0.3333333), wk =   0.0034722
        k(   90) = (   0.0000000   0.1666667  -0.2916667), wk =   0.0034722
        k(   91) = (   0.0000000   0.1666667  -0.2500000), wk =   0.0034722
        k(   92) = (   0.0000000   0.1666667  -0.2083333), wk =   0.0034722
        k(   93) = (   0.0000000   0.1666667  -0.1666667), wk =   0.0017361
        k(   94) = (   0.0000000   0.2083333   0.2083333), wk =   0.0008681
        k(   95) = (   0.0000000   0.2083333   0.2500000), wk =   0.0034722
        k(   96) = (   0.0000000   0.2083333   0.2916667), wk =   0.0034722
        k(   97) = (   0.0000000   0.2083333   0.3333333), wk =   0.0034722
        k(   98) = (   0.0000000   0.2083333   0.3750000), wk =   0.0034722
        k(   99) = (   0.0000000   0.2083333   0.4166667), wk =   0.0034722
        k(  100) = (   0.0000000   0.2083333   0.4583333), wk =   0.0034722
        k(  101) = (   0.0000000   0.2083333  -0.5000000), wk =   0.0034722
        k(  102) = (   0.0000000   0.2083333  -0.4583333), wk =   0.0034722
        k(  103) = (   0.0000000   0.2083333  -0.4166667), wk =   0.0034722
        k(  104) = (   0.0000000   0.2083333  -0.3750000), wk =   0.0034722
        k(  105) = (   0.0000000   0.2083333  -0.3333333), wk =   0.0034722
        k(  106) = (   0.0000000   0.2083333  -0.2916667), wk =   0.0034722
        k(  107) = (   0.0000000   0.2083333  -0.2500000), wk =   0.0034722
        k(  108) = (   0.0000000   0.2083333  -0.2083333), wk =   0.0017361
        k(  109) = (   0.0000000   0.2500000   0.2500000), wk =   0.0008681
        k(  110) = (   0.0000000   0.2500000   0.2916667), wk =   0.0034722
        k(  111) = (   0.0000000   0.2500000   0.3333333), wk =   0.0034722
        k(  112) = (   0.0000000   0.2500000   0.3750000), wk =   0.0034722
        k(  113) = (   0.0000000   0.2500000   0.4166667), wk =   0.0034722
        k(  114) = (   0.0000000   0.2500000   0.4583333), wk =   0.0034722
        k(  115) = (   0.0000000   0.2500000  -0.5000000), wk =   0.0034722
        k(  116) = (   0.0000000   0.2500000  -0.4583333), wk =   0.0034722
        k(  117) = (   0.0000000   0.2500000  -0.4166667), wk =   0.0034722
        k(  118) = (   0.0000000   0.2500000  -0.3750000), wk =   0.0034722
        k(  119) = (   0.0000000   0.2500000  -0.3333333), wk =   0.0034722
        k(  120) = (   0.0000000   0.2500000  -0.2916667), wk =   0.0034722
        k(  121) = (   0.0000000   0.2500000  -0.2500000), wk =   0.0017361
        k(  122) = (   0.0000000   0.2916667   0.2916667), wk =   0.0008681
        k(  123) = (   0.0000000   0.2916667   0.3333333), wk =   0.0034722
        k(  124) = (   0.0000000   0.2916667   0.3750000), wk =   0.0034722
        k(  125) = (   0.0000000   0.2916667   0.4166667), wk =   0.0034722
        k(  126) = (   0.0000000   0.2916667   0.4583333), wk =   0.0034722
        k(  127) = (   0.0000000   0.2916667  -0.5000000), wk =   0.0034722
        k(  128) = (   0.0000000   0.2916667  -0.4583333), wk =   0.0034722
        k(  129) = (   0.0000000   0.2916667  -0.4166667), wk =   0.0034722
        k(  130) = (   0.0000000   0.2916667  -0.3750000), wk =   0.0034722
        k(  131) = (   0.0000000   0.2916667  -0.3333333), wk =   0.0034722
        k(  132) = (   0.0000000   0.2916667  -0.2916667), wk =   0.0017361
        k(  133) = (   0.0000000   0.3333333   0.3333333), wk =   0.0008681
        k(  134) = (   0.0000000   0.3333333   0.3750000), wk =   0.0034722
        k(  135) = (   0.0000000   0.3333333   0.4166667), wk =   0.0034722
        k(  136) = (   0.0000000   0.3333333   0.4583333), wk =   0.0034722
        k(  137) = (   0.0000000   0.3333333  -0.5000000), wk =   0.0034722
        k(  138) = (   0.0000000   0.3333333  -0.4583333), wk =   0.0034722
        k(  139) = (   0.0000000   0.3333333  -0.4166667), wk =   0.0034722
        k(  140) = (   0.0000000   0.3333333  -0.3750000), wk =   0.0034722
        k(  141) = (   0.0000000   0.3333333  -0.3333333), wk =   0.0017361
        k(  142) = (   0.0000000   0.3750000   0.3750000), wk =   0.0008681
        k(  143) = (   0.0000000   0.3750000   0.4166667), wk =   0.0034722
        k(  144) = (   0.0000000   0.3750000   0.4583333), wk =   0.0034722
        k(  145) = (   0.0000000   0.3750000  -0.5000000), wk =   0.0034722
        k(  146) = (   0.0000000   0.3750000  -0.4583333), wk =   0.0034722
        k(  147) = (   0.0000000   0.3750000  -0.4166667), wk =   0.0034722
        k(  148) = (   0.0000000   0.3750000  -0.3750000), wk =   0.0017361
        k(  149) = (   0.0000000   0.4166667   0.4166667), wk =   0.0008681
        k(  150) = (   0.0000000   0.4166667   0.4583333), wk =   0.0034722
        k(  151) = (   0.0000000   0.4166667  -0.5000000), wk =   0.0034722
        k(  152) = (   0.0000000   0.4166667  -0.4583333), wk =   0.0034722
        k(  153) = (   0.0000000   0.4166667  -0.4166667), wk =   0.0017361
        k(  154) = (   0.0000000   0.4583333   0.4583333), wk =   0.0008681
        k(  155) = (   0.0000000   0.4583333  -0.5000000), wk =   0.0034722
        k(  156) = (   0.0000000   0.4583333  -0.4583333), wk =   0.0017361
        k(  157) = (   0.0000000  -0.5000000  -0.5000000), wk =   0.0004340
        k(  158) = (   0.0416667   0.0833333   0.1250000), wk =   0.0034722
        k(  159) = (   0.0416667   0.0833333   0.1666667), wk =   0.0069444
        k(  160) = (   0.0416667   0.0833333   0.2083333), wk =   0.0069444
        k(  161) = (   0.0416667   0.0833333   0.2500000), wk =   0.0069444
        k(  162) = (   0.0416667   0.0833333   0.2916667), wk =   0.0069444
        k(  163) = (   0.0416667   0.0833333   0.3333333), wk =   0.0069444
        k(  164) = (   0.0416667   0.0833333   0.3750000), wk =   0.0069444
        k(  165) = (   0.0416667   0.0833333   0.4166667), wk =   0.0069444
        k(  166) = (   0.0416667   0.0833333   0.4583333), wk =   0.0069444
        k(  167) = (   0.0416667   0.0833333  -0.5000000), wk =   0.0069444
        k(  168) = (   0.0416667   0.0833333  -0.4583333), wk =   0.0034722
        k(  169) = (   0.0416667   0.1250000   0.1666667), wk =   0.0034722
        k(  170) = (   0.0416667   0.1250000   0.2083333), wk =   0.0069444
        k(  171) = (   0.0416667   0.1250000   0.2500000), wk =   0.0069444
        k(  172) = (   0.0416667   0.1250000   0.2916667), wk =   0.0069444
        k(  173) = (   0.0416667   0.1250000   0.3333333), wk =   0.0069444
        k(  174) = (   0.0416667   0.1250000   0.3750000), wk =   0.0069444
        k(  175) = (   0.0416667   0.1250000   0.4166667), wk =   0.0069444
        k(  176) = (   0.0416667   0.1250000   0.4583333), wk =   0.0069444
        k(  177) = (   0.0416667   0.1250000  -0.5000000), wk =   0.0069444
        k(  178) = (   0.0416667   0.1250000  -0.4583333), wk =   0.0069444
        k(  179) = (   0.0416667   0.1250000  -0.4166667), wk =   0.0069444
        k(  180) = (   0.0416667   0.1250000  -0.3750000), wk =   0.0069444
        k(  181) = (   0.0416667   0.1250000  -0.3333333), wk =   0.0069444
        k(  182) = (   0.0416667   0.1250000  -0.2916667), wk =   0.0069444
        k(  183) = (   0.0416667   0.1250000  -0.2500000), wk =   0.0069444
        k(  184) = (   0.0416667   0.1250000  -0.2083333), wk =   0.0069444
        k(  185) = (   0.0416667   0.1250000  -0.1666667), wk =   0.0069444
        k(  186) = (   0.0416667   0.1250000  -0.1250000), wk =   0.0069444
        k(  187) = (   0.0416667   0.1250000  -0.0833333), wk =   0.0034722
        k(  188) = (   0.0416667   0.1666667   0.2083333), wk =   0.0034722
        k(  189) = (   0.0416667   0.1666667   0.2500000), wk =   0.0069444
        k(  190) = (   0.0416667   0.1666667   0.2916667), wk =   0.0069444
        k(  191) = (   0.0416667   0.1666667   0.3333333), wk =   0.0069444
        k(  192) = (   0.0416667   0.1666667   0.3750000), wk =   0.0069444
        k(  193) = (   0.0416667   0.1666667   0.4166667), wk =   0.0069444
        k(  194) = (   0.0416667   0.1666667   0.4583333), wk =   0.0069444
        k(  195) = (   0.0416667   0.1666667  -0.5000000), wk =   0.0069444
        k(  196) = (   0.0416667   0.1666667  -0.4583333), wk =   0.0069444
        k(  197) = (   0.0416667   0.1666667  -0.4166667), wk =   0.0069444
        k(  198) = (   0.0416667   0.1666667  -0.3750000), wk =   0.0069444
        k(  199) = (   0.0416667   0.1666667  -0.3333333), wk =   0.0069444
        k(  200) = (   0.0416667   0.1666667  -0.2916667), wk =   0.0069444
        k(  201) = (   0.0416667   0.1666667  -0.2500000), wk =   0.0069444
        k(  202) = (   0.0416667   0.1666667  -0.2083333), wk =   0.0069444
        k(  203) = (   0.0416667   0.1666667  -0.1666667), wk =   0.0069444
        k(  204) = (   0.0416667   0.1666667  -0.1250000), wk =   0.0034722
        k(  205) = (   0.0416667   0.2083333   0.2500000), wk =   0.0034722
        k(  206) = (   0.0416667   0.2083333   0.2916667), wk =   0.0069444
        k(  207) = (   0.0416667   0.2083333   0.3333333), wk =   0.0069444
        k(  208) = (   0.0416667   0.2083333   0.3750000), wk =   0.0069444
        k(  209) = (   0.0416667   0.2083333   0.4166667), wk =   0.0069444
        k(  210) = (   0.0416667   0.2083333   0.4583333), wk =   0.0069444
        k(  211) = (   0.0416667   0.2083333  -0.5000000), wk =   0.0069444
        k(  212) = (   0.0416667   0.2083333  -0.4583333), wk =   0.0069444
        k(  213) = (   0.0416667   0.2083333  -0.4166667), wk =   0.0069444
        k(  214) = (   0.0416667   0.2083333  -0.3750000), wk =   0.0069444
        k(  215) = (   0.0416667   0.2083333  -0.3333333), wk =   0.0069444
        k(  216) = (   0.0416667   0.2083333  -0.2916667), wk =   0.0069444
        k(  217) = (   0.0416667   0.2083333  -0.2500000), wk =   0.0069444
        k(  218) = (   0.0416667   0.2083333  -0.2083333), wk =   0.0069444
        k(  219) = (   0.0416667   0.2083333  -0.1666667), wk =   0.0034722
        k(  220) = (   0.0416667   0.2500000   0.2916667), wk =   0.0034722
        k(  221) = (   0.0416667   0.2500000   0.3333333), wk =   0.0069444
        k(  222) = (   0.0416667   0.2500000   0.3750000), wk =   0.0069444
        k(  223) = (   0.0416667   0.2500000   0.4166667), wk =   0.0069444
        k(  224) = (   0.0416667   0.2500000   0.4583333), wk =   0.0069444
        k(  225) = (   0.0416667   0.2500000  -0.5000000), wk =   0.0069444
        k(  226) = (   0.0416667   0.2500000  -0.4583333), wk =   0.0069444
        k(  227) = (   0.0416667   0.2500000  -0.4166667), wk =   0.0069444
        k(  228) = (   0.0416667   0.2500000  -0.3750000), wk =   0.0069444
        k(  229) = (   0.0416667   0.2500000  -0.3333333), wk =   0.0069444
        k(  230) = (   0.0416667   0.2500000  -0.2916667), wk =   0.0069444
        k(  231) = (   0.0416667   0.2500000  -0.2500000), wk =   0.0069444
        k(  232) = (   0.0416667   0.2500000  -0.2083333), wk =   0.0034722
        k(  233) = (   0.0416667   0.2916667   0.3333333), wk =   0.0034722
        k(  234) = (   0.0416667   0.2916667   0.3750000), wk =   0.0069444
        k(  235) = (   0.0416667   0.2916667   0.4166667), wk =   0.0069444
        k(  236) = (   0.0416667   0.2916667   0.4583333), wk =   0.0069444
        k(  237) = (   0.0416667   0.2916667  -0.5000000), wk =   0.0069444
        k(  238) = (   0.0416667   0.2916667  -0.4583333), wk =   0.0069444
        k(  239) = (   0.0416667   0.2916667  -0.4166667), wk =   0.0069444
        k(  240) = (   0.0416667   0.2916667  -0.3750000), wk =   0.0069444
        k(  241) = (   0.0416667   0.2916667  -0.3333333), wk =   0.0069444
        k(  242) = (   0.0416667   0.2916667  -0.2916667), wk =   0.0069444
        k(  243) = (   0.0416667   0.2916667  -0.2500000), wk =   0.0034722
        k(  244) = (   0.0416667   0.3333333   0.3750000), wk =   0.0034722
        k(  245) = (   0.0416667   0.3333333   0.4166667), wk =   0.0069444
        k(  246) = (   0.0416667   0.3333333   0.4583333), wk =   0.0069444
        k(  247) = (   0.0416667   0.3333333  -0.5000000), wk =   0.0069444
        k(  248) = (   0.0416667   0.3333333  -0.4583333), wk =   0.0069444
        k(  249) = (   0.0416667   0.3333333  -0.4166667), wk =   0.0069444
        k(  250) = (   0.0416667   0.3333333  -0.3750000), wk =   0.0069444
        k(  251) = (   0.0416667   0.3333333  -0.3333333), wk =   0.0069444
        k(  252) = (   0.0416667   0.3333333  -0.2916667), wk =   0.0034722
        k(  253) = (   0.0416667   0.3750000   0.4166667), wk =   0.0034722
        k(  254) = (   0.0416667   0.3750000   0.4583333), wk =   0.0069444
        k(  255) = (   0.0416667   0.3750000  -0.5000000), wk =   0.0069444
        k(  256) = (   0.0416667   0.3750000  -0.4583333), wk =   0.0069444
        k(  257) = (   0.0416667   0.3750000  -0.4166667), wk =   0.0069444
        k(  258) = (   0.0416667   0.3750000  -0.3750000), wk =   0.0069444
        k(  259) = (   0.0416667   0.3750000  -0.3333333), wk =   0.0034722
        k(  260) = (   0.0416667   0.4166667   0.4583333), wk =   0.0034722
        k(  261) = (   0.0416667   0.4166667  -0.5000000), wk =   0.0069444
        k(  262) = (   0.0416667   0.4166667  -0.4583333), wk =   0.0069444
        k(  263) = (   0.0416667   0.4166667  -0.4166667), wk =   0.0069444
        k(  264) = (   0.0416667   0.4166667  -0.3750000), wk =   0.0034722
        k(  265) = (   0.0416667   0.4583333  -0.5000000), wk =   0.0034722
        k(  266) = (   0.0416667   0.4583333  -0.4583333), wk =   0.0069444
        k(  267) = (   0.0416667   0.4583333  -0.4166667), wk =   0.0034722
        k(  268) = (   0.0416667  -0.5000000  -0.4583333), wk =   0.0017361
        k(  269) = (   0.0833333   0.1666667   0.2500000), wk =   0.0034722
        k(  270) = (   0.0833333   0.1666667   0.2916667), wk =   0.0069444
        k(  271) = (   0.0833333   0.1666667   0.3333333), wk =   0.0069444
        k(  272) = (   0.0833333   0.1666667   0.3750000), wk =   0.0069444
        k(  273) = (   0.0833333   0.1666667   0.4166667), wk =   0.0069444
        k(  274) = (   0.0833333   0.1666667   0.4583333), wk =   0.0069444
        k(  275) = (   0.0833333   0.1666667  -0.5000000), wk =   0.0069444
        k(  276) = (   0.0833333   0.1666667  -0.4583333), wk =   0.0069444
        k(  277) = (   0.0833333   0.1666667  -0.4166667), wk =   0.0034722
        k(  278) = (   0.0833333   0.2083333   0.2916667), wk =   0.0034722
        k(  279) = (   0.0833333   0.2083333   0.3333333), wk =   0.0069444
        k(  280) = (   0.0833333   0.2083333   0.3750000), wk =   0.0069444
        k(  281) = (   0.0833333   0.2083333   0.4166667), wk =   0.0069444
        k(  282) = (   0.0833333   0.2083333   0.4583333), wk =   0.0069444
        k(  283) = (   0.0833333   0.2083333  -0.5000000), wk =   0.0069444
        k(  284) = (   0.0833333   0.2083333  -0.4583333), wk =   0.0069444
        k(  285) = (   0.0833333   0.2083333  -0.4166667), wk =   0.0069444
        k(  286) = (   0.0833333   0.2083333  -0.3750000), wk =   0.0069444
        k(  287) = (   0.0833333   0.2083333  -0.3333333), wk =   0.0069444
        k(  288) = (   0.0833333   0.2083333  -0.2916667), wk =   0.0069444
        k(  289) = (   0.0833333   0.2083333  -0.2500000), wk =   0.0069444
        k(  290) = (   0.0833333   0.2083333  -0.2083333), wk =   0.0069444
        k(  291) = (   0.0833333   0.2083333  -0.1666667), wk =   0.0069444
        k(  292) = (   0.0833333   0.2083333  -0.1250000), wk =   0.0034722
        k(  293) = (   0.0833333   0.2500000   0.3333333), wk =   0.0034722
        k(  294) = (   0.0833333   0.2500000   0.3750000), wk =   0.0069444
        k(  295) = (   0.0833333   0.2500000   0.4166667), wk =   0.0069444
[...]
     1.0000   0.9951   0.0000   0.0000   0.0000   0.0000   0.0000

          k =-0.0295-0.4419 0.6777 (  2307 PWs)   bands (ev):

   -10.3799  -0.4889   0.7223   1.4540   7.8842  10.3725  13.0102  13.7958
    18.0290  19.6779  23.4619  24.6847  25.0545  25.5013  26.0396

     occupation numbers 
     1.0000   1.0000   1.0000   1.0000   1.0000   1.0000   1.0000   1.0000
     1.0000   1.0000   0.0000   0.0000   0.0000   0.0000   0.0000

          k = 0.0000-0.4125 0.6482 (  2307 PWs)   bands (ev):

   -10.3803  -0.2285   0.1831   1.6273   8.1866  11.0072  12.8724  13.0422
    18.0479  19.3288  23.0732  24.7975  25.0950  25.5277  26.0586

     occupation numbers 
     1.0000   1.0000   1.0000   1.0000   1.0000   1.0000   1.0000   1.0000
     1.0000   1.0000   0.0000   0.0000   0.0000   0.0000   0.0000

          k =-0.7071 0.2357-0.0000 (  2318 PWs)   bands (ev):

   -10.3741  -0.6335   1.2424   1.2458   7.4363   9.7554  13.7987  14.0413
    17.9474  20.1271  23.8608  24.5286  25.0432  25.4611  26.0324

     occupation numbers 
     1.0000   1.0000   1.0000   1.0000   1.0000   1.0000   1.0000   1.0000
     1.0000   0.9492   0.0000   0.0000   0.0000   0.0000   0.0000

          k =-0.1179-0.4125 0.7071 (  2300 PWs)   bands (ev):

   -10.4724  -0.7180   0.8354   1.9735   8.4538  10.9170  11.5118  14.2880
    18.0005  18.6358  22.2571  24.2981  25.5942  25.6476  26.1087

     occupation numbers 
     1.0000   1.0000   1.0000   1.0000   1.0000   1.0000   1.0000   1.0000
     1.0000   1.0000   0.0000   0.0000   0.0000   0.0000   0.0000

          k =-0.0884-0.3830 0.6777 (  2304 PWs)   bands (ev):

   -10.4209  -0.5181   0.5184   1.7281   8.6451  11.2129  11.7578  13.5516
    18.2729  18.5896  22.6223  24.5081  25.3714  25.6265  26.0748

     occupation numbers 
     1.0000   1.0000   1.0000   1.0000   1.0000   1.0000   1.0000   1.0000
     1.0000   1.0000   0.0000   0.0000   0.0000   0.0000   0.0000

          k =-0.0589-0.3536 0.6482 (  2304 PWs)   bands (ev):

   -10.4031  -0.4049   0.3637   1.6471   8.7045  11.2079  12.2336  13.0099
    18.3404  18.6102  22.7578  24.6518  25.2132  25.6205  26.0586

     occupation numbers 
     1.0000   1.0000   1.0000   1.0000   1.0000   1.0000   1.0000   1.0000
     1.0000   1.0000   0.0000   0.0000   0.0000   0.0000   0.0000

          k =-0.0589-0.4125 0.7071 (  2308 PWs)   bands (ev):

   -10.3933  -0.4396   0.7180   1.3196   8.3988  10.8752  12.1554  13.6497
    18.2414  19.1777  23.2927  24.5099  25.2034  25.5348  26.0402

     occupation numbers 
     1.0000   1.0000   1.0000   1.0000   1.0000   1.0000   1.0000   1.0000
     1.0000   1.0000   0.0000   0.0000   0.0000   0.0000   0.0000

          k =-0.0295-0.3830 0.6777 (  2306 PWs)   bands (ev):

   -10.3743  -0.1477   0.3325   1.2191   8.6667  11.3847  12.1704  12.8391
    18.4632  19.0121  23.4482  24.7003  24.9648  25.5101  26.0215

     occupation numbers 
     1.0000   1.0000   1.0000   1.0000   1.0000   1.0000   1.0000   1.0000
     1.0000   1.0000   0.0000   0.0000   0.0000   0.0000   0.0000

          k = 0.0000-0.3536 0.6482 (  2306 PWs)   bands (ev):

   -10.3838  -0.1431   0.2103   1.3808   8.7583  11.5519  11.9800  12.8036
    18.5516  18.7278  23.1657  24.6382  25.1336  25.5370  26.0398

     occupation numbers 
     1.0000   1.0000   1.0000   1.0000   1.0000   1.0000   1.0000   1.0000
     1.0000   1.0000   0.0000   0.0000   0.0000   0.0000   0.0000

          k =-0.7071 0.2946 0.0000 (  2310 PWs)   bands (ev):

   -10.3662  -0.2689   0.6787   1.0215   8.3780  10.8601  12.7361  13.0571
    18.3305  19.4041  23.8333  24.6059  24.8788  25.4691  26.0091

     occupation numbers 
     1.0000   1.0000   1.0000   1.0000   1.0000   1.0000   1.0000   1.0000
     1.0000   1.0000   0.0000   0.0000   0.0000   0.0000   0.0000

          k =-0.7071 0.3536 0.0000 (  2328 PWs)   bands (ev):

   -10.3633   0.1704   0.1704   0.9472   8.8299  11.9772  11.9772  12.2400
    18.8115  18.8115  23.8236  24.7267  24.7267  25.4716  25.9992

     occupation numbers 
     1.0000   1.0000   1.0000   1.0000   1.0000   1.0000   1.0000   1.0000
     1.0000   1.0000   0.0000   0.0000   0.0000   0.0000   0.0000

     the Fermi energy is    20.4421 ev

!    total energy              =    -468.62296330 Ry
     total all-electron energy =    -16997.325936 Ry
     estimated scf accuracy    <          1.1E-11 Ry
     smearing contrib. (-TS)   =      -0.00227724 Ry
     internal energy E=F+TS    =    -468.62068605 Ry

     The total energy is F=E-TS. E is the sum of the following terms:
     one-electron contribution =      34.23464386 Ry
     hartree contribution      =       2.34993612 Ry
     xc contribution           =     -82.56979469 Ry
     ewald contribution        =     -89.01687115 Ry
     one-center paw contrib.   =    -333.61860019 Ry
      -> PAW hartree energy AE =      44.70807113 Ry
      -> PAW hartree energy PS =     -44.50728958 Ry
      -> PAW xc energy AE      =    -406.84720542 Ry
      -> PAW xc energy PS      =      73.02918851 Ry
      -> total E_H with PAW    =       2.55071767 Ry
      -> total E_XC with PAW   =    -416.38781160 Ry

     convergence has been achieved in   1 iterations

     Forces acting on atoms (cartesian axes, Ry/au):

     atom    1 type  1   force =     0.00000000   -0.00000000   -0.00000000
     atom    2 type  2   force =    -0.00000000    0.00000000    0.00000000
     atom    3 type  2   force =     0.00000000   -0.00000000    0.00000000
     atom    4 type  2   force =    -0.00000056   -0.00000056   -0.00000056
     atom    5 type  2   force =     0.00000056    0.00000056    0.00000056
     atom    6 type  2   force =     0.00000056    0.00000056   -0.00000056
     atom    7 type  2   force =    -0.00000056   -0.00000056    0.00000056
     atom    8 type  2   force =     0.00000056   -0.00000056    0.00000056
     atom    9 type  2   force =    -0.00000056    0.00000056   -0.00000056
     atom   10 type  2   force =    -0.00000056    0.00000056    0.00000056
     atom   11 type  2   force =     0.00000056   -0.00000056   -0.00000056
     The non-local contrib.  to forces
     atom    1 type  1   force =     0.00000000   -0.00000000   -0.00000000
     atom    2 type  2   force =     0.00000000   -0.00000000   -0.00000000
     atom    3 type  2   force =    -0.00000000    0.00000000   -0.00000000
     atom    4 type  2   force =     0.00305056    0.00305056    0.00305056
     atom    5 type  2   force =    -0.00305056   -0.00305056   -0.00305056
     atom    6 type  2   force =    -0.00305056   -0.00305056    0.00305056
     atom    7 type  2   force =     0.00305056    0.00305056   -0.00305056
     atom    8 type  2   force =    -0.00305056    0.00305056   -0.00305056
     atom    9 type  2   force =     0.00305056   -0.00305056    0.00305056
     atom   10 type  2   force =     0.00305056   -0.00305056   -0.00305056
     atom   11 type  2   force =    -0.00305056    0.00305056    0.00305056
     The ionic contribution  to forces
     atom    1 type  1   force =    -0.00000000   -0.00000000   -0.00000000
     atom    2 type  2   force =     0.00000000    0.00000000    0.00000000
     atom    3 type  2   force =    -0.00000000   -0.00000000    0.00000000
     atom    4 type  2   force =    -0.04323400   -0.04323400   -0.04323400
     atom    5 type  2   force =     0.04323400    0.04323400    0.04323400
     atom    6 type  2   force =     0.04323400    0.04323400   -0.04323400
     atom    7 type  2   force =    -0.04323400   -0.04323400    0.04323400
     atom    8 type  2   force =     0.04323400   -0.04323400    0.04323400
     atom    9 type  2   force =    -0.04323400    0.04323400   -0.04323400
     atom   10 type  2   force =    -0.04323400    0.04323400    0.04323400
     atom   11 type  2   force =     0.04323400   -0.04323400   -0.04323400
     The local contribution  to forces
     atom    1 type  1   force =     0.00000000    0.00000000    0.00000000
     atom    2 type  2   force =    -0.00000000   -0.00000000   -0.00000000
     atom    3 type  2   force =    -0.00000000   -0.00000000   -0.00000000
     atom    4 type  2   force =     0.04018310    0.04018310    0.04018310
     atom    5 type  2   force =    -0.04018310   -0.04018310   -0.04018310
     atom    6 type  2   force =    -0.04018310   -0.04018310    0.04018310
     atom    7 type  2   force =     0.04018310    0.04018310   -0.04018310
     atom    8 type  2   force =    -0.04018310    0.04018310   -0.04018310
     atom    9 type  2   force =     0.04018310   -0.04018310    0.04018310
     atom   10 type  2   force =     0.04018310   -0.04018310   -0.04018310
     atom   11 type  2   force =    -0.04018310    0.04018310    0.04018310
     The core correction contribution to forces
     atom    1 type  1   force =    -0.00000000   -0.00000000    0.00000000
     atom    2 type  2   force =     0.00000000    0.00000000    0.00000000
     atom    3 type  2   force =     0.00000000    0.00000000    0.00000000
     atom    4 type  2   force =     0.00000000    0.00000000    0.00000000
     atom    5 type  2   force =     0.00000000    0.00000000    0.00000000
     atom    6 type  2   force =     0.00000000    0.00000000    0.00000000
     atom    7 type  2   force =     0.00000000    0.00000000    0.00000000
     atom    8 type  2   force =     0.00000000    0.00000000    0.00000000
     atom    9 type  2   force =     0.00000000    0.00000000    0.00000000
     atom   10 type  2   force =     0.00000000    0.00000000    0.00000000
     atom   11 type  2   force =     0.00000000    0.00000000    0.00000000
     The Hubbard contrib.    to forces
     atom    1 type  1   force =     0.00000000    0.00000000    0.00000000
     atom    2 type  2   force =     0.00000000    0.00000000    0.00000000
     atom    3 type  2   force =     0.00000000    0.00000000    0.00000000
     atom    4 type  2   force =     0.00000000    0.00000000    0.00000000
     atom    5 type  2   force =     0.00000000    0.00000000    0.00000000
     atom    6 type  2   force =     0.00000000    0.00000000    0.00000000
     atom    7 type  2   force =     0.00000000    0.00000000    0.00000000
     atom    8 type  2   force =     0.00000000    0.00000000    0.00000000
     atom    9 type  2   force =     0.00000000    0.00000000    0.00000000
     atom   10 type  2   force =     0.00000000    0.00000000    0.00000000
     atom   11 type  2   force =     0.00000000    0.00000000    0.00000000
     The SCF correction term to forces
     atom    1 type  1   force =     0.00000000    0.00000000    0.00000000
     atom    2 type  2   force =    -0.00000000   -0.00000000    0.00000000
     atom    3 type  2   force =    -0.00000000    0.00000000   -0.00000000
     atom    4 type  2   force =    -0.00000022   -0.00000022   -0.00000022
     atom    5 type  2   force =     0.00000022    0.00000022    0.00000022
     atom    6 type  2   force =     0.00000022    0.00000022   -0.00000022
     atom    7 type  2   force =    -0.00000022   -0.00000022    0.00000022
     atom    8 type  2   force =     0.00000022   -0.00000022    0.00000022
     atom    9 type  2   force =    -0.00000022    0.00000022   -0.00000022
     atom   10 type  2   force =    -0.00000022    0.00000022    0.00000022
     atom   11 type  2   force =     0.00000022   -0.00000022   -0.00000022

     Total force =     0.000003     Total SCF correction =     0.000001
     SCF correction compared to forces is large: reduce conv_thr to get better values


     Computing stress (Cartesian axis) and pressure

          total   stress  (Ry/bohr**3)                   (kbar)     P=     2500.31
   0.01699679   0.00000000   0.00000000         2500.31        0.00        0.00
   0.00000000   0.01699679   0.00000000            0.00     2500.31        0.00
   0.00000000   0.00000000   0.01699679            0.00        0.00     2500.31

     kinetic stress (kbar)  19885.69      0.00     -0.00
                                0.00  19885.69      0.00
                               -0.00      0.00  19885.69

     local   stress (kbar)   4638.68     -0.00     -0.00
                               -0.00   4638.68     -0.00
                               -0.00     -0.00   4638.68

     nonloc. stress (kbar)   6182.87     -0.00     -0.00
                               -0.00   6182.87     -0.00
                               -0.00     -0.00   6182.87

     hartree stress (kbar)    601.24     -0.00      0.00
                               -0.00    601.24     -0.00
                                0.00     -0.00    601.24

     exc-cor stress (kbar)  43096.07      0.00     -0.00
                                0.00  43096.07     -0.00
                               -0.00     -0.00  43096.07

     corecor stress (kbar) -49129.11     -0.00     -0.00
                               -0.00 -49129.11      0.00
                               -0.00      0.00 -49129.11

     ewald   stress (kbar) -22775.12      0.00      0.00
                                0.00 -22775.12      0.00
                                0.00      0.00 -22775.12

     hubbard stress (kbar)      0.00      0.00      0.00
                                0.00      0.00      0.00
                                0.00      0.00      0.00

     DFT-D   stress (kbar)      0.00      0.00      0.00
                                0.00      0.00      0.00
                                0.00      0.00      0.00

     XDM     stress (kbar)      0.00      0.00      0.00
                                0.00      0.00      0.00
                                0.00      0.00      0.00

     dft-nl  stress (kbar)      0.00      0.00      0.00
                                0.00      0.00      0.00
                                0.00      0.00      0.00

     TS-vdW  stress (kbar)      0.00      0.00      0.00
                                0.00      0.00      0.00
                                0.00      0.00      0.00

     MDB     stress (kbar)      0.00      0.00      0.00
                                0.00      0.00      0.00
                                0.00      0.00      0.00

     3D-RISM stress (kbar)      0.00      0.00      0.00
                                0.00      0.00      0.00
                                0.00      0.00      0.00

     Message from routine bfgs:
     history already reset at previous step: exiting
     Energy error            =      7.6E-09 Ry
     Gradient error          =      5.6E-07 Ry/Bohr
     Cell gradient error     =      3.1E-01 kbar

     bfgs failed after   4 scf cycles and   1 bfgs steps, convergence not achieved
     (criteria: energy <  1.0E-07 Ry, force <  1.0E-06 Ry/Bohr, cell <  1.0E-02 kbar)

     End of BFGS Geometry Optimization

     Final enthalpy           =    -465.3658684301 Ry

     File ./tmp/La1H10.bfgs deleted, as requested
Begin final coordinates
     new unit-cell volume =    191.65408 a.u.^3 (    28.40020 Ang^3 )
     density =      8.71104 g/cm^3

CELL_PARAMETERS (angstrom)
  -0.000000000   2.421570718   2.421570718
   2.421570718  -0.000000000   2.421570718
   2.421570718   2.421570718  -0.000000000

ATOMIC_POSITIONS (crystal)
La               0.0000000000        0.0000000000        0.0000000000
H                0.2500000000        0.2500000000        0.2500000000
H                0.7500000000        0.7500000000        0.7500000000
H                0.6206181221        0.6206181221        0.6206181221
H                0.3793818779        0.3793818779        0.3793818779
H                0.6206181221        0.6206181221        0.1381456338
H                0.3793818779        0.3793818779        0.8618543662
H                0.6206181221        0.1381456338        0.6206181221
H                0.3793818779        0.8618543662        0.3793818779
H                0.1381456338        0.6206181221        0.6206181221
H                0.8618543662        0.3793818779        0.3793818779
End final coordinates



     Writing config-only to output data dir ./tmp/La1H10.save/ :
     XML data file

     Writing all to output data dir ./tmp/La1H10.save/ :
     XML data file, charge density, pseudopotentials, collected wavefunctions
 
     init_run     :      1.02s CPU      1.79s WALL (       1 calls)
     electrons    :     17.01s CPU     20.09s WALL (       4 calls)
     update_pot   :      0.74s CPU      0.76s WALL (       3 calls)
     forces       :      0.35s CPU      0.39s WALL (       4 calls)
     stress       :      1.38s CPU      1.42s WALL (       4 calls)

     Called by init_run:
     wfcinit      :      0.45s CPU      0.73s WALL (       1 calls)
     wfcinit:atom :      0.01s CPU      0.01s WALL (     104 calls)
     wfcinit:wfcr :      0.41s CPU      0.57s WALL (     104 calls)
     potinit      :      0.25s CPU      0.39s WALL (       1 calls)
     hinit0       :      0.21s CPU      0.47s WALL (       1 calls)

     Called by electrons:
     c_bands      :     12.01s CPU     13.79s WALL (      15 calls)
     sum_band     :      2.12s CPU      2.29s WALL (      15 calls)
     v_of_rho     :      0.15s CPU      0.18s WALL (      15 calls)
     v_h          :      0.01s CPU      0.01s WALL (      15 calls)
     v_xc         :      0.21s CPU      0.25s WALL (      23 calls)
     newd         :      0.33s CPU      0.36s WALL (      15 calls)
     PAW_pot      :      3.96s CPU      4.06s WALL (      18 calls)
     mix_rho      :      0.01s CPU      0.01s WALL (      15 calls)

     Called by c_bands:
     init_us_2    :      0.41s CPU      0.45s WALL (    4368 calls)
     cegterg      :     10.28s CPU     11.02s WALL (    1560 calls)

     Called by sum_band:
     sum_band:wei :      0.04s CPU      0.04s WALL (      15 calls)
     sum_band:loo :      1.53s CPU      1.65s WALL (      15 calls)
     sum_band:buf :      0.01s CPU      0.01s WALL (    1560 calls)
     sum_band:ini :      0.15s CPU      0.16s WALL (    1560 calls)
     sum_band:cal :      0.08s CPU      0.09s WALL (    1872 calls)
     sum_band:bec :      0.02s CPU      0.02s WALL (    1872 calls)
     addusdens    :      0.42s CPU      0.45s WALL (      15 calls)
                                        0.00s GPU  (      15 calls)
     addusd:skk   :      0.00s CPU      0.00s WALL (      30 calls)
                                        0.00s GPU  (      30 calls)

     Called by *egterg:
     cdiaghg      :      1.77s CPU      1.97s WALL (    6234 calls)
     cegterg:over :      0.25s CPU      0.27s WALL (    5402 calls)
     cegterg:upda :      0.09s CPU      0.09s WALL (    5402 calls)
     cegterg:last :      0.12s CPU      0.12s WALL (    3427 calls)
     h_psi        :      7.98s CPU      8.59s WALL (    7066 calls)
     s_psi        :      0.18s CPU      0.19s WALL (    7066 calls)
     g_psi        :      0.03s CPU      0.03s WALL (    5402 calls)

     Called by h_psi:
     h_psi:calbec :      0.27s CPU      0.31s WALL (    7066 calls)
     vloc_psi     :      7.44s CPU      8.00s WALL (    7066 calls)
     add_vuspsi   :      0.20s CPU      0.21s WALL (    7066 calls)

     General routines
     calbec       :      0.59s CPU      0.64s WALL (   16010 calls)
     fft          :      0.09s CPU      0.24s WALL (     294 calls)
     ffts         :      0.00s CPU      0.03s WALL (      30 calls)
     fftw         :      7.00s CPU      7.53s WALL (  161920 calls)
     interpolate  :      0.01s CPU      0.03s WALL (      15 calls)
     davcio       :      0.00s CPU      0.10s WALL (     104 calls)
 
     Parallel routines

     PAW routines
     PAW_pot      :      3.96s CPU      4.06s WALL (      18 calls)
     PAW_symme    :      0.08s CPU      0.09s WALL (      33 calls)
 
     PWSCF        :     21.97s CPU     35.74s WALL

 
   This run was terminated on:  10:26:28  22Oct2025            

=------------------------------------------------------------------------------=
   JOB DONE.
=------------------------------------------------------------------------------=
