
     Program PWSCF v.7.4.1 starts on 22Oct2025 at 10:27: 9 

     This program is part of the open-source Quantum ESPRESSO suite
     for quantum simulation of materials; please cite
         "P. Giannozzi et al., J. Phys.:Condens. Matter 21 395502 (2009);
         "P. Giannozzi et al., J. Phys.:Condens. Matter 29 465901 (2017);
         "P. Giannozzi et al., J. Chem. Phys. 152 154105 (2020);
          URL http://www.quantum-espresso.org", 
     in publications or presentations arising from this work. More details at
     http://www.quantum-espresso.org/quote

     Parallel version (MPI), running on    48 processors

     MPI processes distributed on     1 nodes
     180957 MiB available memory on the printing compute node when the environment starts
 
     Waiting for input...
     Reading input from standard input

     Current dimensions of program PWSCF are:
     Max number of different atomic species (ntypx) = 10
     Max number of k-points (npk) =  40000
     Max angular momentum in pseudopotentials (lmaxx) =  4
     file La.pbe-spfn-kjpaw_psl.1.0.0.UPF: wavefunction(s)  5S 5D 4F renormalized
     file H.pbe-kjpaw_psl.1.0.0.UPF: wavefunction(s)  1S renormalized
     Message from routine setup:
     using ibrav=0 with symmetry is DISCOURAGED, use correct ibrav instead
 
     K-points division:     npool     =       4
     R & G space division:  proc/nbgrp/npool/nimage =      12
     Subspace diagonalization in iterative solution of the eigenvalue problem:
     a serial algorithm will be used

 
     Parallelization info
     --------------------
     sticks:   dense  smooth     PW     G-vecs:    dense   smooth      PW
     Min         231      77     23                 8029     1540     259
     Max         232      78     24                 8031     1543     261
     Sum        2773     925    283                96353    18499    3119
 
     Using Slab Decomposition
 


     bravais-lattice index     =            0
     lattice parameter (alat)  =       6.4716  a.u.
     unit-cell volume          =     191.6541 (a.u.)^3
     number of atoms/cell      =           11
     number of atomic types    =            2
     number of electrons       =        21.00
     number of Kohn-Sham states=           15
     kinetic-energy cutoff     =      80.0000  Ry
     charge density cutoff     =     960.0000  Ry
     scf convergence threshold =      1.0E-09
     mixing beta               =       0.7000
     number of iterations used =            8  plain     mixing
     Exchange-correlation= SLA  PW   PBX  PBC
                           (   1   4   3   4   0   0   0)

     celldm(1)=   6.471590  celldm(2)=   0.000000  celldm(3)=   0.000000
     celldm(4)=   0.000000  celldm(5)=   0.000000  celldm(6)=   0.000000

     crystal axes: (cart. coord. in units of alat)
               a(1) = (   0.000000   0.707107   0.707107 )  
               a(2) = (   0.707107   0.000000   0.707107 )  
               a(3) = (   0.707107   0.707107   0.000000 )  

     reciprocal axes: (cart. coord. in units 2 pi/alat)
               b(1) = ( -0.707107  0.707107  0.707107 )  
               b(2) = (  0.707107 -0.707107  0.707107 )  
               b(3) = (  0.707107  0.707107 -0.707107 )  


     PseudoPot. # 1 for La read from file:
     /work/home/mayuan/workplace/1.typical_hydride/003.MH10/1.LaH10/250/Tc-666-paw/pp/La.pbe-spfn-kjpaw_psl.1.0.0.UPF
     MD5 check sum: ccc10218a00d76b68822f6b8f5772390
     Pseudo is Projector augmented-wave + core cor, Zval = 11.0
     Generated using 'atomic' code by A. Dal Corso  v.7.1
     Shape of augmentation charge: PSQ
     Using radial grid of 1253 points,  8 beta functions with: 
                l(1) =   0
                l(2) =   0
                l(3) =   1
                l(4) =   1
                l(5) =   2
                l(6) =   2
                l(7) =   3
                l(8) =   3
     Q(r) pseudized with 0 coefficients 


     PseudoPot. # 2 for H  read from file:
     /work/home/mayuan/workplace/1.typical_hydride/003.MH10/1.LaH10/250/Tc-666-paw/pp/H.pbe-kjpaw_psl.1.0.0.UPF
     MD5 check sum: 3bb27c602ede137025941d095c9090b7
     Pseudo is Projector augmented-wave, Zval =  1.0
     Generated using 'atomic' code by A. Dal Corso  v.7.1
     Shape of augmentation charge: PSQ
     Using radial grid of  929 points,  2 beta functions with: 
                l(1) =   0
                l(2) =   0
     Q(r) pseudized with 0 coefficients 


     atomic species   valence    mass     pseudopotential
     La               11.00   138.90547     La( 1.00)
     H                 1.00     1.00794     H ( 1.00)

     48 Sym. Ops., with inversion, found


                                    s                        frac. trans.

      isym =  1     identity                                     

 cryst.   s( 1) = (     1          0          0      )
                  (     0          1          0      )
                  (     0          0          1      )

 cart.    s( 1) = (  1.0000000  0.0000000  0.0000000 )
                  (  0.0000000  1.0000000  0.0000000 )
                  (  0.0000000  0.0000000  1.0000000 )


      isym =  2     180 deg rotation - cart. axis [0,0,1]        

 cryst.   s( 2) = (     0          1         -1      )
                  (     1          0         -1      )
                  (     0          0         -1      )

 cart.    s( 2) = ( -1.0000000  0.0000000  0.0000000 )
                  (  0.0000000 -1.0000000  0.0000000 )
                  (  0.0000000  0.0000000  1.0000000 )


      isym =  3     180 deg rotation - cart. axis [0,1,0]        

 cryst.   s( 3) = (     0         -1          1      )
                  (     0         -1          0      )
                  (     1         -1          0      )

 cart.    s( 3) = ( -1.0000000  0.0000000  0.0000000 )
                  (  0.0000000  1.0000000  0.0000000 )
                  (  0.0000000  0.0000000 -1.0000000 )


      isym =  4     180 deg rotation - cart. axis [1,0,0]        

 cryst.   s( 4) = (    -1          0          0      )
                  (    -1          0          1      )
                  (    -1          1          0      )

 cart.    s( 4) = (  1.0000000  0.0000000  0.0000000 )
                  (  0.0000000 -1.0000000  0.0000000 )
                  (  0.0000000  0.0000000 -1.0000000 )


      isym =  5     180 deg rotation - cart. axis [1,1,0]        

 cryst.   s( 5) = (    -1          0          1      )
                  (     0         -1          1      )
                  (     0          0          1      )

 cart.    s( 5) = (  0.0000000  1.0000000  0.0000000 )
                  (  1.0000000  0.0000000  0.0000000 )
                  (  0.0000000  0.0000000 -1.0000000 )


      isym =  6     180 deg rotation - cart. axis [1,-1,0]       

 cryst.   s( 6) = (     0         -1          0      )
                  (    -1          0          0      )
                  (     0          0         -1      )

 cart.    s( 6) = (  0.0000000 -1.0000000  0.0000000 )
                  ( -1.0000000  0.0000000  0.0000000 )
                  (  0.0000000  0.0000000 -1.0000000 )


      isym =  7      90 deg rotation - cart. axis [0,0,-1]       

 cryst.   s( 7) = (     0          1          0      )
                  (     0          1         -1      )
                  (    -1          1          0      )

 cart.    s( 7) = (  0.0000000  1.0000000  0.0000000 )
                  ( -1.0000000  0.0000000  0.0000000 )
                  (  0.0000000  0.0000000  1.0000000 )


      isym =  8      90 deg rotation - cart. axis [0,0,1]        

 cryst.   s( 8) = (     1          0         -1      )
                  (     1          0          0      )
                  (     1         -1          0      )

 cart.    s( 8) = (  0.0000000 -1.0000000  0.0000000 )
                  (  1.0000000  0.0000000  0.0000000 )
                  (  0.0000000  0.0000000  1.0000000 )


      isym =  9     180 deg rotation - cart. axis [1,0,1]        

 cryst.   s( 9) = (    -1          1          0      )
                  (     0          1          0      )
                  (     0          1         -1      )

 cart.    s( 9) = (  0.0000000  0.0000000  1.0000000 )
                  (  0.0000000 -1.0000000  0.0000000 )
                  (  1.0000000  0.0000000  0.0000000 )


      isym = 10     180 deg rotation - cart. axis [-1,0,1]       

 cryst.   s(10) = (     0          0         -1      )
                  (     0         -1          0      )
                  (    -1          0          0      )

 cart.    s(10) = (  0.0000000  0.0000000 -1.0000000 )
                  (  0.0000000 -1.0000000  0.0000000 )
                  ( -1.0000000  0.0000000  0.0000000 )


      isym = 11      90 deg rotation - cart. axis [0,1,0]        

 cryst.   s(11) = (     0          0          1      )
                  (    -1          0          1      )
                  (     0         -1          1      )

 cart.    s(11) = (  0.0000000  0.0000000  1.0000000 )
                  (  0.0000000  1.0000000  0.0000000 )
                  ( -1.0000000  0.0000000  0.0000000 )


      isym = 12      90 deg rotation - cart. axis [0,-1,0]       

 cryst.   s(12) = (     1         -1          0      )
                  (     1          0         -1      )
                  (     1          0          0      )

 cart.    s(12) = (  0.0000000  0.0000000 -1.0000000 )
                  (  0.0000000  1.0000000  0.0000000 )
                  (  1.0000000  0.0000000  0.0000000 )


      isym = 13     180 deg rotation - cart. axis [0,1,1]        

 cryst.   s(13) = (     1          0          0      )
                  (     1         -1          0      )
                  (     1          0         -1      )

 cart.    s(13) = ( -1.0000000  0.0000000  0.0000000 )
                  (  0.0000000  0.0000000  1.0000000 )
                  (  0.0000000  1.0000000  0.0000000 )


      isym = 14     180 deg rotation - cart. axis [0,1,-1]       

 cryst.   s(14) = (    -1          0          0      )
                  (     0          0         -1      )
                  (     0         -1          0      )

 cart.    s(14) = ( -1.0000000  0.0000000  0.0000000 )
                  (  0.0000000  0.0000000 -1.0000000 )
                  (  0.0000000 -1.0000000  0.0000000 )


      isym = 15      90 deg rotation - cart. axis [-1,0,0]       

 cryst.   s(15) = (     0         -1          1      )
                  (     0          0          1      )
                  (    -1          0          1      )

 cart.    s(15) = (  1.0000000  0.0000000  0.0000000 )
                  (  0.0000000  0.0000000  1.0000000 )
                  (  0.0000000 -1.0000000  0.0000000 )


      isym = 16      90 deg rotation - cart. axis [1,0,0]        

 cryst.   s(16) = (     0          1         -1      )
                  (    -1          1          0      )
                  (     0          1          0      )

 cart.    s(16) = (  1.0000000  0.0000000  0.0000000 )
                  (  0.0000000  0.0000000 -1.0000000 )
                  (  0.0000000  1.0000000  0.0000000 )


      isym = 17     120 deg rotation - cart. axis [-1,-1,-1]     

 cryst.   s(17) = (     0          0          1      )
                  (     1          0          0      )
                  (     0          1          0      )

 cart.    s(17) = (  0.0000000  1.0000000  0.0000000 )
                  (  0.0000000  0.0000000  1.0000000 )
                  (  1.0000000  0.0000000  0.0000000 )


      isym = 18     120 deg rotation - cart. axis [-1,1,1]       

 cryst.   s(18) = (     1         -1          0      )
                  (     0         -1          1      )
                  (     0         -1          0      )

 cart.    s(18) = (  0.0000000 -1.0000000  0.0000000 )
                  (  0.0000000  0.0000000  1.0000000 )
                  ( -1.0000000  0.0000000  0.0000000 )


      isym = 19     120 deg rotation - cart. axis [1,1,-1]       

 cryst.   s(19) = (    -1          1          0      )
                  (    -1          0          0      )
                  (    -1          0          1      )

 cart.    s(19) = (  0.0000000  1.0000000  0.0000000 )
                  (  0.0000000  0.0000000 -1.0000000 )
                  ( -1.0000000  0.0000000  0.0000000 )


      isym = 20     120 deg rotation - cart. axis [1,-1,1]       

 cryst.   s(20) = (     0          0         -1      )
                  (     0          1         -1      )
                  (     1          0         -1      )

 cart.    s(20) = (  0.0000000 -1.0000000  0.0000000 )
                  (  0.0000000  0.0000000 -1.0000000 )
                  (  1.0000000  0.0000000  0.0000000 )


      isym = 21     120 deg rotation - cart. axis [1,1,1]        

 cryst.   s(21) = (     0          1          0      )
                  (     0          0          1      )
                  (     1          0          0      )

 cart.    s(21) = (  0.0000000  0.0000000  1.0000000 )
                  (  1.0000000  0.0000000  0.0000000 )
                  (  0.0000000  1.0000000  0.0000000 )


      isym = 22     120 deg rotation - cart. axis [-1,1,-1]      

 cryst.   s(22) = (    -1          0          1      )
                  (    -1          1          0      )
                  (    -1          0          0      )

 cart.    s(22) = (  0.0000000  0.0000000  1.0000000 )
                  ( -1.0000000  0.0000000  0.0000000 )
                  (  0.0000000 -1.0000000  0.0000000 )


      isym = 23     120 deg rotation - cart. axis [1,-1,-1]      

 cryst.   s(23) = (     1          0         -1      )
                  (     0          0         -1      )
                  (     0          1         -1      )

 cart.    s(23) = (  0.0000000  0.0000000 -1.0000000 )
                  ( -1.0000000  0.0000000  0.0000000 )
                  (  0.0000000  1.0000000  0.0000000 )


      isym = 24     120 deg rotation - cart. axis [-1,-1,1]      

 cryst.   s(24) = (     0         -1          0      )
                  (     1         -1          0      )
                  (     0         -1          1      )

 cart.    s(24) = (  0.0000000  0.0000000 -1.0000000 )
                  (  1.0000000  0.0000000  0.0000000 )
                  (  0.0000000 -1.0000000  0.0000000 )


      isym = 25     inversion                                    

 cryst.   s(25) = (    -1          0          0      )
                  (     0         -1          0      )
                  (     0          0         -1      )

 cart.    s(25) = ( -1.0000000  0.0000000  0.0000000 )
                  (  0.0000000 -1.0000000  0.0000000 )
                  (  0.0000000  0.0000000 -1.0000000 )


      isym = 26     inv. 180 deg rotation - cart. axis [0,0,1]   

 cryst.   s(26) = (     0         -1          1      )
                  (    -1          0          1      )
                  (     0          0          1      )

 cart.    s(26) = (  1.0000000  0.0000000  0.0000000 )
                  (  0.0000000  1.0000000  0.0000000 )
                  (  0.0000000  0.0000000 -1.0000000 )


      isym = 27     inv. 180 deg rotation - cart. axis [0,1,0]   

 cryst.   s(27) = (     0          1         -1      )
                  (     0          1          0      )
                  (    -1          1          0      )

 cart.    s(27) = (  1.0000000  0.0000000  0.0000000 )
                  (  0.0000000 -1.0000000  0.0000000 )
                  (  0.0000000  0.0000000  1.0000000 )


      isym = 28     inv. 180 deg rotation - cart. axis [1,0,0]   

 cryst.   s(28) = (     1          0          0      )
                  (     1          0         -1      )
                  (     1         -1          0      )

 cart.    s(28) = ( -1.0000000  0.0000000  0.0000000 )
                  (  0.0000000  1.0000000  0.0000000 )
                  (  0.0000000  0.0000000  1.0000000 )


      isym = 29     inv. 180 deg rotation - cart. axis [1,1,0]   

 cryst.   s(29) = (     1          0         -1      )
                  (     0          1         -1      )
                  (     0          0         -1      )

 cart.    s(29) = (  0.0000000 -1.0000000  0.0000000 )
                  ( -1.0000000  0.0000000  0.0000000 )
                  (  0.0000000  0.0000000  1.0000000 )


      isym = 30     inv. 180 deg rotation - cart. axis [1,-1,0]  

 cryst.   s(30) = (     0          1          0      )
                  (     1          0          0      )
                  (     0          0          1      )

 cart.    s(30) = (  0.0000000  1.0000000  0.0000000 )
                  (  1.0000000  0.0000000  0.0000000 )
                  (  0.0000000  0.0000000  1.0000000 )


      isym = 31     inv.  90 deg rotation - cart. axis [0,0,-1]  

 cryst.   s(31) = (     0         -1          0      )
                  (     0         -1          1      )
                  (     1         -1          0      )

 cart.    s(31) = (  0.0000000 -1.0000000  0.0000000 )
                  (  1.0000000  0.0000000  0.0000000 )
                  (  0.0000000  0.0000000 -1.0000000 )


      isym = 32     inv.  90 deg rotation - cart. axis [0,0,1]   

 cryst.   s(32) = (    -1          0          1      )
                  (    -1          0          0      )
                  (    -1          1          0      )

 cart.    s(32) = (  0.0000000  1.0000000  0.0000000 )
                  ( -1.0000000  0.0000000  0.0000000 )
                  (  0.0000000  0.0000000 -1.0000000 )


      isym = 33     inv. 180 deg rotation - cart. axis [1,0,1]   

 cryst.   s(33) = (     1         -1          0      )
                  (     0         -1          0      )
                  (     0         -1          1      )

 cart.    s(33) = (  0.0000000  0.0000000 -1.0000000 )
                  (  0.0000000  1.0000000  0.0000000 )
                  ( -1.0000000  0.0000000  0.0000000 )


      isym = 34     inv. 180 deg rotation - cart. axis [-1,0,1]  

 cryst.   s(34) = (     0          0          1      )
                  (     0          1          0      )
                  (     1          0          0      )

 cart.    s(34) = (  0.0000000  0.0000000  1.0000000 )
                  (  0.0000000  1.0000000  0.0000000 )
                  (  1.0000000  0.0000000  0.0000000 )


      isym = 35     inv.  90 deg rotation - cart. axis [0,1,0]   

 cryst.   s(35) = (     0          0         -1      )
                  (     1          0         -1      )
                  (     0          1         -1      )

 cart.    s(35) = (  0.0000000  0.0000000 -1.0000000 )
                  (  0.0000000 -1.0000000  0.0000000 )
                  (  1.0000000  0.0000000  0.0000000 )


      isym = 36     inv.  90 deg rotation - cart. axis [0,-1,0]  

 cryst.   s(36) = (    -1          1          0      )
                  (    -1          0          1      )
                  (    -1          0          0      )

 cart.    s(36) = (  0.0000000  0.0000000  1.0000000 )
                  (  0.0000000 -1.0000000  0.0000000 )
                  ( -1.0000000  0.0000000  0.0000000 )


      isym = 37     inv. 180 deg rotation - cart. axis [0,1,1]   

 cryst.   s(37) = (    -1          0          0      )
                  (    -1          1          0      )
                  (    -1          0          1      )

 cart.    s(37) = (  1.0000000  0.0000000  0.0000000 )
                  (  0.0000000  0.0000000 -1.0000000 )
                  (  0.0000000 -1.0000000  0.0000000 )


      isym = 38     inv. 180 deg rotation - cart. axis [0,1,-1]  

 cryst.   s(38) = (     1          0          0      )
                  (     0          0          1      )
                  (     0          1          0      )

 cart.    s(38) = (  1.0000000  0.0000000  0.0000000 )
                  (  0.0000000  0.0000000  1.0000000 )
                  (  0.0000000  1.0000000  0.0000000 )


      isym = 39     inv.  90 deg rotation - cart. axis [-1,0,0]  

 cryst.   s(39) = (     0          1         -1      )
                  (     0          0         -1      )
                  (     1          0         -1      )

 cart.    s(39) = ( -1.0000000  0.0000000  0.0000000 )
                  (  0.0000000  0.0000000 -1.0000000 )
                  (  0.0000000  1.0000000  0.0000000 )


      isym = 40     inv.  90 deg rotation - cart. axis [1,0,0]   

 cryst.   s(40) = (     0         -1          1      )
                  (     1         -1          0      )
                  (     0         -1          0      )

 cart.    s(40) = ( -1.0000000  0.0000000  0.0000000 )
                  (  0.0000000  0.0000000  1.0000000 )
                  (  0.0000000 -1.0000000  0.0000000 )


      isym = 41     inv. 120 deg rotation - cart. axis [-1,-1,-1]

 cryst.   s(41) = (     0          0         -1      )
                  (    -1          0          0      )
                  (     0         -1          0      )

 cart.    s(41) = (  0.0000000 -1.0000000  0.0000000 )
                  (  0.0000000  0.0000000 -1.0000000 )
                  ( -1.0000000  0.0000000  0.0000000 )


      isym = 42     inv. 120 deg rotation - cart. axis [-1,1,1]  

 cryst.   s(42) = (    -1          1          0      )
                  (     0          1         -1      )
                  (     0          1          0      )

 cart.    s(42) = (  0.0000000  1.0000000  0.0000000 )
                  (  0.0000000  0.0000000 -1.0000000 )
                  (  1.0000000  0.0000000  0.0000000 )


      isym = 43     inv. 120 deg rotation - cart. axis [1,1,-1]  

 cryst.   s(43) = (     1         -1          0      )
                  (     1          0          0      )
                  (     1          0         -1      )

 cart.    s(43) = (  0.0000000 -1.0000000  0.0000000 )
                  (  0.0000000  0.0000000  1.0000000 )
                  (  1.0000000  0.0000000  0.0000000 )


      isym = 44     inv. 120 deg rotation - cart. axis [1,-1,1]  

 cryst.   s(44) = (     0          0          1      )
                  (     0         -1          1      )
                  (    -1          0          1      )

 cart.    s(44) = (  0.0000000  1.0000000  0.0000000 )
                  (  0.0000000  0.0000000  1.0000000 )
                  ( -1.0000000  0.0000000  0.0000000 )


      isym = 45     inv. 120 deg rotation - cart. axis [1,1,1]   

 cryst.   s(45) = (     0         -1          0      )
                  (     0          0         -1      )
                  (    -1          0          0      )

 cart.    s(45) = (  0.0000000  0.0000000 -1.0000000 )
                  ( -1.0000000  0.0000000  0.0000000 )
                  (  0.0000000 -1.0000000  0.0000000 )


      isym = 46     inv. 120 deg rotation - cart. axis [-1,1,-1] 

 cryst.   s(46) = (     1          0         -1      )
                  (     1         -1          0      )
                  (     1          0          0      )

 cart.    s(46) = (  0.0000000  0.0000000 -1.0000000 )
                  (  1.0000000  0.0000000  0.0000000 )
                  (  0.0000000  1.0000000  0.0000000 )


      isym = 47     inv. 120 deg rotation - cart. axis [1,-1,-1] 

 cryst.   s(47) = (    -1          0          1      )
                  (     0          0          1      )
                  (     0         -1          1      )

 cart.    s(47) = (  0.0000000  0.0000000  1.0000000 )
                  (  1.0000000  0.0000000  0.0000000 )
                  (  0.0000000 -1.0000000  0.0000000 )


      isym = 48     inv. 120 deg rotation - cart. axis [-1,-1,1] 

 cryst.   s(48) = (     0          1          0      )
                  (    -1          1          0      )
                  (     0          1         -1      )

 cart.    s(48) = (  0.0000000  0.0000000  1.0000000 )
                  ( -1.0000000  0.0000000  0.0000000 )
                  (  0.0000000  1.0000000  0.0000000 )


   Cartesian axes

     site n.     atom                  positions (alat units)
         1        La     tau(   1) = (   0.0000000   0.0000000   0.0000000  )
         2        H      tau(   2) = (   0.3535534   0.3535534   0.3535534  )
         3        H      tau(   3) = (   1.0606602   1.0606602   1.0606602  )
         4        H      tau(   4) = (   0.8776866   0.8776866   0.8776866  )
         5        H      tau(   5) = (   0.5365270   0.5365270   0.5365270  )
         6        H      tau(   6) = (   0.5365270   0.5365270   0.8776866  )
         7        H      tau(   7) = (   0.8776866   0.8776866   0.5365270  )
         8        H      tau(   8) = (   0.5365270   0.8776866   0.5365270  )
         9        H      tau(   9) = (   0.8776866   0.5365270   0.8776866  )
        10        H      tau(  10) = (   0.8776866   0.5365270   0.5365270  )
        11        H      tau(  11) = (   0.5365270   0.8776866   0.8776866  )

   Crystallographic axes

     site n.     atom                  positions (cryst. coord.)
         1        La     tau(   1) = (  0.0000000  0.0000000  0.0000000  )
         2        H      tau(   2) = (  0.2500000  0.2500000  0.2500000  )
         3        H      tau(   3) = (  0.7500000  0.7500000  0.7500000  )
         4        H      tau(   4) = (  0.6206181  0.6206181  0.6206181  )
         5        H      tau(   5) = (  0.3793819  0.3793819  0.3793819  )
         6        H      tau(   6) = (  0.6206181  0.6206181  0.1381456  )
         7        H      tau(   7) = (  0.3793819  0.3793819  0.8618544  )
         8        H      tau(   8) = (  0.6206181  0.1381456  0.6206181  )
         9        H      tau(   9) = (  0.3793819  0.8618544  0.3793819  )
        10        H      tau(  10) = (  0.1381456  0.6206181  0.6206181  )
        11        H      tau(  11) = (  0.8618544  0.3793819  0.3793819  )

     number of k points=    72  Gaussian smearing, width (Ry)=  0.0200
                       cart. coord. in units 2pi/alat
        k(    1) = (   0.0000000   0.0000000   0.0000000), wk =   0.0011574
        k(    2) = (   0.0589256   0.0589256  -0.0589256), wk =   0.0092593
        k(    3) = (   0.1178511   0.1178511  -0.1178511), wk =   0.0092593
        k(    4) = (   0.1767767   0.1767767  -0.1767767), wk =   0.0092593
        k(    5) = (   0.2357023   0.2357023  -0.2357023), wk =   0.0092593
        k(    6) = (   0.2946278   0.2946278  -0.2946278), wk =   0.0092593
        k(    7) = (  -0.3535534  -0.3535534   0.3535534), wk =   0.0046296
        k(    8) = (   0.1178511   0.0000000   0.0000000), wk =   0.0069444
        k(    9) = (   0.1767767   0.0589256  -0.0589256), wk =   0.0277778
        k(   10) = (   0.2357023   0.1178511  -0.1178511), wk =   0.0277778
        k(   11) = (   0.2946278   0.1767767  -0.1767767), wk =   0.0277778
        k(   12) = (   0.3535534   0.2357023  -0.2357023), wk =   0.0277778
        k(   13) = (  -0.2946278  -0.4124790   0.4124790), wk =   0.0277778
        k(   14) = (  -0.2357023  -0.3535534   0.3535534), wk =   0.0277778
        k(   15) = (  -0.1767767  -0.2946278   0.2946278), wk =   0.0277778
        k(   16) = (  -0.1178511  -0.2357023   0.2357023), wk =   0.0277778
        k(   17) = (  -0.0589256  -0.1767767   0.1767767), wk =   0.0277778
        k(   18) = (  -0.0000000  -0.1178511   0.1178511), wk =   0.0138889
        k(   19) = (   0.2357023   0.0000000   0.0000000), wk =   0.0069444
        k(   20) = (   0.2946278   0.0589256  -0.0589256), wk =   0.0277778
        k(   21) = (   0.3535534   0.1178511  -0.1178511), wk =   0.0277778
        k(   22) = (   0.4124790   0.1767767  -0.1767767), wk =   0.0277778
        k(   23) = (  -0.2357023  -0.4714045   0.4714045), wk =   0.0277778
        k(   24) = (  -0.1767767  -0.4124790   0.4124790), wk =   0.0277778
        k(   25) = (  -0.1178511  -0.3535534   0.3535534), wk =   0.0277778
        k(   26) = (  -0.0589256  -0.2946278   0.2946278), wk =   0.0277778
        k(   27) = (   0.0000000  -0.2357023   0.2357023), wk =   0.0138889
        k(   28) = (   0.3535534   0.0000000   0.0000000), wk =   0.0069444
        k(   29) = (   0.4124790   0.0589256  -0.0589256), wk =   0.0277778
        k(   30) = (   0.4714045   0.1178511  -0.1178511), wk =   0.0277778
        k(   31) = (  -0.1767767  -0.5303301   0.5303301), wk =   0.0277778
        k(   32) = (  -0.1178511  -0.4714045   0.4714045), wk =   0.0277778
        k(   33) = (  -0.0589256  -0.4124790   0.4124790), wk =   0.0277778
        k(   34) = (   0.0000000  -0.3535534   0.3535534), wk =   0.0138889
        k(   35) = (   0.4714045   0.0000000   0.0000000), wk =   0.0069444
        k(   36) = (   0.5303301   0.0589256  -0.0589256), wk =   0.0277778
        k(   37) = (  -0.1178511  -0.5892557   0.5892557), wk =   0.0277778
        k(   38) = (  -0.0589256  -0.5303301   0.5303301), wk =   0.0277778
        k(   39) = (  -0.0000000  -0.4714045   0.4714045), wk =   0.0138889
        k(   40) = (   0.5892557   0.0000000   0.0000000), wk =   0.0069444
        k(   41) = (  -0.0589256  -0.6481812   0.6481812), wk =   0.0277778
        k(   42) = (   0.0000000  -0.5892557   0.5892557), wk =   0.0138889
        k(   43) = (  -0.7071068   0.0000000   0.0000000), wk =   0.0034722
        k(   44) = (   0.2357023   0.1178511  -0.0000000), wk =   0.0277778
        k(   45) = (   0.2946278   0.1767767  -0.0589256), wk =   0.0555556
        k(   46) = (   0.3535534   0.2357023  -0.1178511), wk =   0.0555556
        k(   47) = (  -0.2946278  -0.4124790   0.5303301), wk =   0.0555556
        k(   48) = (  -0.2357023  -0.3535534   0.4714045), wk =   0.0277778
        k(   49) = (   0.3535534   0.1178511   0.0000000), wk =   0.0277778
        k(   50) = (   0.4124790   0.1767767  -0.0589256), wk =   0.0555556
        k(   51) = (  -0.2357023  -0.4714045   0.5892557), wk =   0.0555556
        k(   52) = (  -0.1767767  -0.4124790   0.5303301), wk =   0.0555556
        k(   53) = (  -0.1178511  -0.3535534   0.4714045), wk =   0.0555556
        k(   54) = (  -0.0589256  -0.2946278   0.4124790), wk =   0.0555556
        k(   55) = (   0.0000000  -0.2357023   0.3535534), wk =   0.0277778
        k(   56) = (   0.4714045   0.1178511   0.0000000), wk =   0.0277778
        k(   57) = (  -0.1767767  -0.5303301   0.6481812), wk =   0.0555556
        k(   58) = (  -0.1178511  -0.4714045   0.5892557), wk =   0.0555556
        k(   59) = (  -0.0589256  -0.4124790   0.5303301), wk =   0.0555556
        k(   60) = (  -0.0000000  -0.3535534   0.4714045), wk =   0.0277778
        k(   61) = (  -0.1178511  -0.5892557   0.7071068), wk =   0.0277778
        k(   62) = (  -0.0589256  -0.5303301   0.6481812), wk =   0.0555556
        k(   63) = (  -0.0000000  -0.4714045   0.5892557), wk =   0.0277778
        k(   64) = (  -0.7071068   0.1178511   0.0000000), wk =   0.0138889
        k(   65) = (  -0.2357023  -0.4714045   0.7071068), wk =   0.0277778
        k(   66) = (  -0.1767767  -0.4124790   0.6481812), wk =   0.0555556
        k(   67) = (  -0.1178511  -0.3535534   0.5892557), wk =   0.0277778
        k(   68) = (  -0.1178511  -0.4714045   0.7071068), wk =   0.0277778
        k(   69) = (  -0.0589256  -0.4124790   0.6481812), wk =   0.0555556
        k(   70) = (   0.0000000  -0.3535534   0.5892557), wk =   0.0277778
        k(   71) = (  -0.7071068   0.2357023   0.0000000), wk =   0.0138889
        k(   72) = (  -0.7071068   0.3535534   0.0000000), wk =   0.0069444

                       cryst. coord.
        k(    1) = (   0.0000000   0.0000000   0.0000000), wk =   0.0011574
        k(    2) = (   0.0000000   0.0000000   0.0833333), wk =   0.0092593
        k(    3) = (   0.0000000   0.0000000   0.1666667), wk =   0.0092593
        k(    4) = (   0.0000000   0.0000000   0.2500000), wk =   0.0092593
        k(    5) = (   0.0000000   0.0000000   0.3333333), wk =   0.0092593
        k(    6) = (   0.0000000   0.0000000   0.4166667), wk =   0.0092593
        k(    7) = (   0.0000000   0.0000000  -0.5000000), wk =   0.0046296
        k(    8) = (   0.0000000   0.0833333   0.0833333), wk =   0.0069444
        k(    9) = (   0.0000000   0.0833333   0.1666667), wk =   0.0277778
        k(   10) = (   0.0000000   0.0833333   0.2500000), wk =   0.0277778
        k(   11) = (   0.0000000   0.0833333   0.3333333), wk =   0.0277778
        k(   12) = (   0.0000000   0.0833333   0.4166667), wk =   0.0277778
        k(   13) = (   0.0000000   0.0833333  -0.5000000), wk =   0.0277778
        k(   14) = (   0.0000000   0.0833333  -0.4166667), wk =   0.0277778
        k(   15) = (   0.0000000   0.0833333  -0.3333333), wk =   0.0277778
        k(   16) = (   0.0000000   0.0833333  -0.2500000), wk =   0.0277778
        k(   17) = (   0.0000000   0.0833333  -0.1666667), wk =   0.0277778
        k(   18) = (   0.0000000   0.0833333  -0.0833333), wk =   0.0138889
        k(   19) = (   0.0000000   0.1666667   0.1666667), wk =   0.0069444
        k(   20) = (   0.0000000   0.1666667   0.2500000), wk =   0.0277778
        k(   21) = (   0.0000000   0.1666667   0.3333333), wk =   0.0277778
        k(   22) = (   0.0000000   0.1666667   0.4166667), wk =   0.0277778
        k(   23) = (   0.0000000   0.1666667  -0.5000000), wk =   0.0277778
        k(   24) = (   0.0000000   0.1666667  -0.4166667), wk =   0.0277778
        k(   25) = (   0.0000000   0.1666667  -0.3333333), wk =   0.0277778
        k(   26) = (   0.0000000   0.1666667  -0.2500000), wk =   0.0277778
        k(   27) = (   0.0000000   0.1666667  -0.1666667), wk =   0.0138889
        k(   28) = (   0.0000000   0.2500000   0.2500000), wk =   0.0069444
        k(   29) = (   0.0000000   0.2500000   0.3333333), wk =   0.0277778
        k(   30) = (   0.0000000   0.2500000   0.4166667), wk =   0.0277778
        k(   31) = (   0.0000000   0.2500000  -0.5000000), wk =   0.0277778
        k(   32) = (   0.0000000   0.2500000  -0.4166667), wk =   0.0277778
        k(   33) = (   0.0000000   0.2500000  -0.3333333), wk =   0.0277778
        k(   34) = (   0.0000000   0.2500000  -0.2500000), wk =   0.0138889
        k(   35) = (   0.0000000   0.3333333   0.3333333), wk =   0.0069444
        k(   36) = (   0.0000000   0.3333333   0.4166667), wk =   0.0277778
        k(   37) = (   0.0000000   0.3333333  -0.5000000), wk =   0.0277778
        k(   38) = (   0.0000000   0.3333333  -0.4166667), wk =   0.0277778
        k(   39) = (   0.0000000   0.3333333  -0.3333333), wk =   0.0138889
        k(   40) = (   0.0000000   0.4166667   0.4166667), wk =   0.0069444
        k(   41) = (   0.0000000   0.4166667  -0.5000000), wk =   0.0277778
        k(   42) = (   0.0000000   0.4166667  -0.4166667), wk =   0.0138889
        k(   43) = (   0.0000000  -0.5000000  -0.5000000), wk =   0.0034722
        k(   44) = (   0.0833333   0.1666667   0.2500000), wk =   0.0277778
        k(   45) = (   0.0833333   0.1666667   0.3333333), wk =   0.0555556
        k(   46) = (   0.0833333   0.1666667   0.4166667), wk =   0.0555556
        k(   47) = (   0.0833333   0.1666667  -0.5000000), wk =   0.0555556
        k(   48) = (   0.0833333   0.1666667  -0.4166667), wk =   0.0277778
        k(   49) = (   0.0833333   0.2500000   0.3333333), wk =   0.0277778
        k(   50) = (   0.0833333   0.2500000   0.4166667), wk =   0.0555556
        k(   51) = (   0.0833333   0.2500000  -0.5000000), wk =   0.0555556
        k(   52) = (   0.0833333   0.2500000  -0.4166667), wk =   0.0555556
        k(   53) = (   0.0833333   0.2500000  -0.3333333), wk =   0.0555556
        k(   54) = (   0.0833333   0.2500000  -0.2500000), wk =   0.0555556
        k(   55) = (   0.0833333   0.2500000  -0.1666667), wk =   0.0277778
        k(   56) = (   0.0833333   0.3333333   0.4166667), wk =   0.0277778
        k(   57) = (   0.0833333   0.3333333  -0.5000000), wk =   0.0555556
        k(   58) = (   0.0833333   0.3333333  -0.4166667), wk =   0.0555556
        k(   59) = (   0.0833333   0.3333333  -0.3333333), wk =   0.0555556
        k(   60) = (   0.0833333   0.3333333  -0.2500000), wk =   0.0277778
        k(   61) = (   0.0833333   0.4166667  -0.5000000), wk =   0.0277778
        k(   62) = (   0.0833333   0.4166667  -0.4166667), wk =   0.0555556
        k(   63) = (   0.0833333   0.4166667  -0.3333333), wk =   0.0277778
        k(   64) = (   0.0833333  -0.5000000  -0.4166667), wk =   0.0138889
        k(   65) = (   0.1666667   0.3333333  -0.5000000), wk =   0.0277778
        k(   66) = (   0.1666667   0.3333333  -0.4166667), wk =   0.0555556
        k(   67) = (   0.1666667   0.3333333  -0.3333333), wk =   0.0277778
        k(   68) = (   0.1666667   0.4166667  -0.4166667), wk =   0.0277778
        k(   69) = (   0.1666667   0.4166667  -0.3333333), wk =   0.0555556
        k(   70) = (   0.1666667   0.4166667  -0.2500000), wk =   0.0277778
        k(   71) = (   0.1666667  -0.5000000  -0.3333333), wk =   0.0138889
        k(   72) = (   0.2500000  -0.5000000  -0.2500000), wk =   0.0069444

     Dense  grid:    96353 G-vectors     FFT dimensions: (  64,  64,  64)

     Smooth grid:    18499 G-vectors     FFT dimensions: (  40,  40,  40)

     Dynamical RAM for                 wfc:       0.04 MB

     Dynamical RAM for     wfc (w. buffer):       0.84 MB

     Dynamical RAM for           str. fact:       0.25 MB

     Dynamical RAM for           local pot:       0.00 MB

     Dynamical RAM for          nlocal pot:       0.15 MB

     Dynamical RAM for                qrad:      11.93 MB

     Dynamical RAM for          rho,v,vnew:       0.93 MB

     Dynamical RAM for               rhoin:       0.31 MB

     Dynamical RAM for            rho*nmix:       1.96 MB

     Dynamical RAM for           G-vectors:       0.47 MB

     Dynamical RAM for          h,s,v(r/c):       0.04 MB

     Dynamical RAM for          <psi|beta>:       0.01 MB

     Dynamical RAM for                 psi:       0.09 MB

     Dynamical RAM for                hpsi:       0.09 MB

     Dynamical RAM for                spsi:       0.09 MB

     Dynamical RAM for      wfcinit/wfcrot:       0.09 MB

     Dynamical RAM for           addusdens:      17.39 MB

     Dynamical RAM for          addusforce:      18.04 MB

     Dynamical RAM for         addusstress:      17.87 MB

     Estimated static dynamical RAM per process >      16.18 MB

     Estimated max dynamical RAM per process >      36.18 MB

     Estimated total dynamical RAM >       1.63 GB

     Initial potential from superposition of free atoms

     starting charge      20.9701, renormalised to      21.0000
     Starting wfcs are   30 randomized atomic wfcs
     Checking if some PAW data can be deallocated... 
       PAW data deallocated on   43 nodes for type:  1
       PAW data deallocated on    5 nodes for type:  2

     total cpu time spent up to now is        2.5 secs

     Self-consistent Calculation

     iteration #  1     ecut=    80.00 Ry     beta= 0.70
     Davidson diagonalization with overlap

---- Real-time Memory Report at c_bands before calling an iterative solver
           151 MiB given to the printing process from OS
             0 MiB allocation reported by mallinfo(arena+hblkhd)
        179113 MiB available memory on the node where the printing process lives
------------------
     ethr =  1.00E-02,  avg # of iterations =  2.1

     Threshold (ethr) on eigenvalues was too large:
     Diagonalizing with lowered threshold

     Davidson diagonalization with overlap

---- Real-time Memory Report at c_bands before calling an iterative solver
           159 MiB given to the printing process from OS
             0 MiB allocation reported by mallinfo(arena+hblkhd)
        178302 MiB available memory on the node where the printing process lives
------------------
     ethr =  7.19E-04,  avg # of iterations =  1.1

     total cpu time spent up to now is        3.2 secs

     total energy              =    -468.59557234 Ry
     estimated scf accuracy    <       0.15419670 Ry

     iteration #  2     ecut=    80.00 Ry     beta= 0.70
     Davidson diagonalization with overlap

---- Real-time Memory Report at c_bands before calling an iterative solver
           162 MiB given to the printing process from OS
             0 MiB allocation reported by mallinfo(arena+hblkhd)
        178295 MiB available memory on the node where the printing process lives
------------------
     ethr =  7.34E-04,  avg # of iterations =  2.8

     total cpu time spent up to now is        3.6 secs

     total energy              =    -468.61952852 Ry
     estimated scf accuracy    <       0.01434876 Ry

     iteration #  3     ecut=    80.00 Ry     beta= 0.70
     Davidson diagonalization with overlap

---- Real-time Memory Report at c_bands before calling an iterative solver
           164 MiB given to the printing process from OS
             0 MiB allocation reported by mallinfo(arena+hblkhd)
        178279 MiB available memory on the node where the printing process lives
------------------
     ethr =  6.83E-05,  avg # of iterations =  3.4

     total cpu time spent up to now is        4.1 secs

     total energy              =    -468.62326597 Ry
     estimated scf accuracy    <       0.00074309 Ry

     iteration #  4     ecut=    80.00 Ry     beta= 0.70
     Davidson diagonalization with overlap

---- Real-time Memory Report at c_bands before calling an iterative solver
           165 MiB given to the printing process from OS
             0 MiB allocation reported by mallinfo(arena+hblkhd)
        178279 MiB available memory on the node where the printing process lives
------------------
     ethr =  3.54E-06,  avg # of iterations =  8.9

     total cpu time spent up to now is        4.7 secs

     total energy              =    -468.62345897 Ry
     estimated scf accuracy    <       0.00002211 Ry

     iteration #  5     ecut=    80.00 Ry     beta= 0.70
     Davidson diagonalization with overlap

---- Real-time Memory Report at c_bands before calling an iterative solver
           169 MiB given to the printing process from OS
             0 MiB allocation reported by mallinfo(arena+hblkhd)
        178275 MiB available memory on the node where the printing process lives
------------------
     ethr =  1.05E-07,  avg # of iterations =  3.8

     total cpu time spent up to now is        5.2 secs

     total energy              =    -468.62346837 Ry
     estimated scf accuracy    <       0.00000027 Ry

     iteration #  6     ecut=    80.00 Ry     beta= 0.70
     Davidson diagonalization with overlap

---- Real-time Memory Report at c_bands before calling an iterative solver
           171 MiB given to the printing process from OS
             0 MiB allocation reported by mallinfo(arena+hblkhd)
        178275 MiB available memory on the node where the printing process lives
------------------
     ethr =  1.30E-09,  avg # of iterations =  5.2

     total cpu time spent up to now is        5.7 secs

     total energy              =    -468.62346865 Ry
     estimated scf accuracy    <       0.00000010 Ry

     iteration #  7     ecut=    80.00 Ry     beta= 0.70
     Davidson diagonalization with overlap

---- Real-time Memory Report at c_bands before calling an iterative solver
           173 MiB given to the printing process from OS
             0 MiB allocation reported by mallinfo(arena+hblkhd)
        178272 MiB available memory on the node where the printing process lives
------------------
     ethr =  4.99E-10,  avg # of iterations =  2.3

     total cpu time spent up to now is        6.1 secs

     total energy              =    -468.62346865 Ry
     estimated scf accuracy    <          6.9E-09 Ry

     iteration #  8     ecut=    80.00 Ry     beta= 0.70
     Davidson diagonalization with overlap

---- Real-time Memory Report at c_bands before calling an iterative solver
           174 MiB given to the printing process from OS
             0 MiB allocation reported by mallinfo(arena+hblkhd)
        178272 MiB available memory on the node where the printing process lives
------------------
     ethr =  3.30E-11,  avg # of iterations =  4.5

     total cpu time spent up to now is        6.6 secs

     End of self-consistent calculation

          k = 0.0000 0.0000 0.0000 (  2277 PWs)   bands (ev):

   -12.4715   4.2074   5.7650   5.7650   5.7650  11.0407  14.9729  14.9729
    14.9729  15.0820  15.0820  15.0820  19.3090  22.0458  22.0458

     occupation numbers 
     1.0000   1.0000   1.0000   1.0000   1.0000   1.0000   1.0000   1.0000
     1.0000   1.0000   1.0000   1.0000   1.0000   0.0000   0.0000

          k = 0.0589 0.0589-0.0589 (  2307 PWs)   bands (ev):

   -12.3893   3.1921   5.7223   5.7223   6.6007  10.6007  14.2049  14.5381
    14.5381  15.4295  15.4295  16.2635  20.1738  22.5230  22.5230

     occupation numbers 
     1.0000   1.0000   1.0000   1.0000   1.0000   1.0000   1.0000   1.0000
     1.0000   1.0000   1.0000   1.0000   0.9029   0.0000   0.0000

          k = 0.1179 0.1179-0.1179 (  2307 PWs)   bands (ev):

   -12.1526   1.6397   5.6136   5.6136   7.3104  10.4360  13.0807  13.7647
    13.7647  16.1456  16.1456  18.3922  22.0684  23.6363  23.6363

     occupation numbers 
     1.0000   1.0000   1.0000   1.0000   1.0000   1.0000   1.0000   1.0000
     1.0000   1.0000   1.0000   1.0000   0.0000   0.0000   0.0000

          k = 0.1768 0.1768-0.1768 (  2316 PWs)   bands (ev):

   -11.7951   0.1168   5.4822   5.4822   7.1268  11.3932  12.0867  12.9406
    12.9406  17.2112  17.2112  20.6777  24.2512  24.7644  24.7645

     occupation numbers 
     1.0000   1.0000   1.0000   1.0000   1.0000   1.0000   1.0000   1.0000
     1.0000   1.0000   1.0000   0.0934   0.0000   0.0000   0.0000

          k = 0.2357 0.2357-0.2357 (  2331 PWs)   bands (ev):

   -11.3851  -1.1917   5.3678   5.3678   6.7161  11.1752  12.2573  12.2573
    13.0087  18.5059  18.5059  22.3310  25.4511  25.4513  25.7077

     occupation numbers 
     1.0000   1.0000   1.0000   1.0000   1.0000   1.0000   1.0000   1.0000
     1.0000   1.0000   1.0000   0.0000   0.0000   0.0000   0.0000

          k = 0.2946 0.2946-0.2946 (  2334 PWs)   bands (ev):

   -11.0384  -2.1025   5.2938   5.2938   6.4311  10.6817  11.8144  11.8144
    14.4031  19.7717  19.7717  22.5176  25.6140  25.6140  25.8949

     occupation numbers 
     1.0000   1.0000   1.0000   1.0000   1.0000   1.0000   1.0000   1.0000
     1.0000   0.9996   0.9996   0.0000   0.0000   0.0000   0.0000

          k =-0.3536-0.3536 0.3536 (  2332 PWs)   bands (ev):

   -10.8982  -2.4346   5.2685   5.2685   6.3338  10.5118  11.6615  11.6615
    15.0369  20.3883  20.3883  22.1889  25.3253  25.3253  25.9024

     occupation numbers 
     1.0000   1.0000   1.0000   1.0000   1.0000   1.0000   1.0000   1.0000
     1.0000   0.5728   0.5728   0.0000   0.0000   0.0000   0.0000

          k = 0.1179 0.0000 0.0000 (  2305 PWs)   bands (ev):

   -12.3620   3.0616   5.5216   5.5216   7.0845  10.3792  13.4789  14.6003
    14.6003  15.9370  16.1359  16.1359  20.0476  22.1509  23.2377

     occupation numbers 
     1.0000   1.0000   1.0000   1.0000   1.0000   1.0000   1.0000   1.0000
     1.0000   1.0000   1.0000   1.0000   0.9746   0.0000   0.0000

          k = 0.1768 0.0589-0.0589 (  2307 PWs)   bands (ev):

   -12.1769   1.9509   5.2879   5.3349   7.9580   9.9539  12.1903  14.3649
    14.6139  15.9977  16.8983  17.9514  21.1553  22.7207  24.4245

     occupation numbers 
     1.0000   1.0000   1.0000   1.0000   1.0000   1.0000   1.0000   1.0000
     1.0000   1.0000   1.0000   1.0000   0.0001   0.0000   0.0000

          k = 0.2357 0.1179-0.1179 (  2303 PWs)   bands (ev):

   -11.8591   0.5641   5.0428   5.0891   8.1215  10.5522  11.1060  13.7814
    14.1926  16.5625  17.8946  20.1382  23.1119  23.8616  25.4388

     occupation numbers 
     1.0000   1.0000   1.0000   1.0000   1.0000   1.0000   1.0000   1.0000
     1.0000   1.0000   1.0000   0.9310   0.0000   0.0000   0.0000

          k = 0.2946 0.1768-0.1768 (  2315 PWs)   bands (ev):

   -11.4636  -0.7489   4.6694   4.9732   7.8432  10.1815  12.0627  13.0829
    13.6395  17.6045  19.0952  22.0032  24.8725  24.9724  25.9595

     occupation numbers 
     1.0000   1.0000   1.0000   1.0000   1.0000   1.0000   1.0000   1.0000
     1.0000   1.0000   1.0000   0.0000   0.0000   0.0000   0.0000

          k = 0.3536 0.2357-0.2357 (  2315 PWs)   bands (ev):

   -11.0887  -1.7660   4.3294   4.9625   7.6016   9.6487  12.4715  13.2615
    13.6078  18.6692  20.1946  22.7852  25.2468  25.7341  25.9673

     occupation numbers 
     1.0000   1.0000   1.0000   1.0000   1.0000   1.0000   1.0000   1.0000
     1.0000   1.0000   0.8830   0.0000   0.0000   0.0000   0.0000

          k =-0.2946-0.4125 0.4125 (  2322 PWs)   bands (ev):

   -10.8714  -2.2864   4.0891   5.0559   7.4840   9.4225  12.0559  13.1671
    14.6944  19.2429  20.4845  23.0160  25.2676  25.7475  25.8960

     occupation numbers 
     1.0000   1.0000   1.0000   1.0000   1.0000   1.0000   1.0000   1.0000
     1.0000   1.0000   0.3759   0.0000   0.0000   0.0000   0.0000

          k =-0.2357-0.3536 0.3536 (  2328 PWs)   bands (ev):

   -10.9183  -2.1781   3.9824   5.2311   7.5083   9.5178  11.8970  13.3270
    14.5234  19.5813  19.5999  23.2960  25.3374  25.7402  25.9158

     occupation numbers 
     1.0000   1.0000   1.0000   1.0000   1.0000   1.0000   1.0000   1.0000
     1.0000   1.0000   1.0000   0.0000   0.0000   0.0000   0.0000

          k =-0.1768-0.2946 0.2946 (  2315 PWs)   bands (ev):

   -11.2043  -1.4727   4.0322   5.4480   7.6719   9.9446  12.0295  13.1001
    13.8817  18.2024  19.5640  22.8758  25.0915  25.7870  25.7943

     occupation numbers 
     1.0000   1.0000   1.0000   1.0000   1.0000   1.0000   1.0000   1.0000
     1.0000   1.0000   1.0000   0.0000   0.0000   0.0000   0.0000

          k =-0.1179-0.2357 0.2357 (  2321 PWs)   bands (ev):

   -11.6001  -0.3415   4.2538   5.6549   7.9473  10.6927  11.5941  12.4615
    14.3926  16.8831  18.6598  21.5836  24.0131  25.3971  25.4349

     occupation numbers 
     1.0000   1.0000   1.0000   1.0000   1.0000   1.0000   1.0000   1.0000
     1.0000   1.0000   1.0000   0.0000   0.0000   0.0000   0.0000

          k =-0.0589-0.1768 0.1768 (  2304 PWs)   bands (ev):

   -11.9779   0.9982   4.6492   5.7959   8.1170  10.3401  11.7284  13.1602
    14.9239  15.8546  17.4428  19.6179  22.1905  24.3042  24.6779

     occupation numbers 
     1.0000   1.0000   1.0000   1.0000   1.0000   1.0000   1.0000   1.0000
     1.0000   1.0000   1.0000   1.0000   0.0000   0.0000   0.0000

          k =-0.0000-0.1179 0.1179 (  2313 PWs)   bands (ev):

   -12.2556   2.2986   5.1955   5.8240   7.4816  10.1977  12.9848  14.0030
    15.0306  15.2684  16.2915  17.6159  20.8570  23.0033  23.5550

     occupation numbers 
     1.0000   1.0000   1.0000   1.0000   1.0000   1.0000   1.0000   1.0000
     1.0000   1.0000   1.0000   1.0000   0.0122   0.0000   0.0000

          k = 0.2357 0.0000 0.0000 (  2309 PWs)   bands (ev):

   -12.0474   1.6241   4.9328   4.9328   8.6280   9.2319  11.3111  14.7532
    14.7532  17.8496  17.8496  17.9767  20.8901  22.4571  25.4251

     occupation numbers 
     1.0000   1.0000   1.0000   1.0000   1.0000   1.0000   1.0000   1.0000
     1.0000   1.0000   1.0000   1.0000   0.0077   0.0000   0.0000

          k = 0.2946 0.0589-0.0589 (  2312 PWs)   bands (ev):

   -11.7819   0.7413   4.5009   4.6399   8.4770   9.1282  11.0619  14.6968
    15.0015  17.8484  18.8528  20.0448  22.0988  23.0927  26.1233

     occupation numbers 
     1.0000   1.0000   1.0000   1.0000   1.0000   1.0000   1.0000   1.0000
     1.0000   1.0000   1.0000   0.9755   0.0000   0.0000   0.0000

          k = 0.3536 0.1179-0.1179 (  2320 PWs)   bands (ev):

   -11.4245  -0.3203   3.8518   4.4659   7.9088   9.6679  11.2946  14.2368
    15.1646  18.0786  19.9328  21.8564  24.1401  24.1668  26.2719

     occupation numbers 
     1.0000   1.0000   1.0000   1.0000   1.0000   1.0000   1.0000   1.0000
     1.0000   1.0000   0.9946   0.0000   0.0000   0.0000   0.0000

          k = 0.4125 0.1768-0.1768 (  2322 PWs)   bands (ev):

   -11.0557  -1.2684   3.2014   4.4383   7.5148   9.9108  12.2315  13.6324
    15.1678  18.4893  20.8251  23.0173  24.8629  25.4790  26.1167

     occupation numbers 
     1.0000   1.0000   1.0000   1.0000   1.0000   1.0000   1.0000   1.0000
     1.0000   1.0000   0.0185   0.0000   0.0000   0.0000   0.0000

          k =-0.2357-0.4714 0.4714 (  2318 PWs)   bands (ev):

   -10.7944  -1.8687   2.7002   4.5614   7.4160   9.8247  13.0755  13.5619
    15.1722  18.3597  20.7761  23.7493  25.1712  25.7891  26.0915

     occupation numbers 
     1.0000   1.0000   1.0000   1.0000   1.0000   1.0000   1.0000   1.0000
     1.0000   1.0000   0.0335   0.0000   0.0000   0.0000   0.0000

          k =-0.1768-0.4125 0.4125 (  2320 PWs)   bands (ev):

   -10.7552  -1.9542   2.4159   4.8168   7.6308   9.7162  12.6635  14.1203
    15.3681  18.1701  19.6512  24.4868  25.6477  25.7086  25.8573

     occupation numbers 
     1.0000   1.0000   1.0000   1.0000   1.0000   1.0000   1.0000   1.0000
     1.0000   1.0000   1.0000   0.0000   0.0000   0.0000   0.0000

          k =-0.1179-0.3536 0.3536 (  2317 PWs)   bands (ev):

   -10.9575  -1.5114   2.4032   5.1593   8.1436   9.7097  12.4461  13.0549
    15.8370  18.2303  18.8119  24.1574  24.9527  25.8829  26.0801

     occupation numbers 
     1.0000   1.0000   1.0000   1.0000   1.0000   1.0000   1.0000   1.0000
     1.0000   1.0000   1.0000   0.0000   0.0000   0.0000   0.0000

          k =-0.0589-0.2946 0.2946 (  2325 PWs)   bands (ev):

   -11.3068  -0.7092   2.7384   5.5089   8.8875   9.8770  11.4649  12.4518
    16.1678  16.9849  19.0747  23.1064  23.9439  25.6005  25.7848

     occupation numbers 
     1.0000   1.0000   1.0000   1.0000   1.0000   1.0000   1.0000   1.0000
     1.0000   1.0000   1.0000   0.0000   0.0000   0.0000   0.0000

          k = 0.0000-0.2357 0.2357 (  2309 PWs)   bands (ev):

   -11.6779   0.1913   3.5054   5.7548   9.2524  10.2203  10.4790  12.6954
    15.9802  16.1469  18.4250  21.6582  22.4717  25.2897  25.4183

     occupation numbers 
     1.0000   1.0000   1.0000   1.0000   1.0000   1.0000   1.0000   1.0000
     1.0000   1.0000   1.0000   0.0000   0.0000   0.0000   0.0000

          k = 0.3536 0.0000 0.0000 (  2293 PWs)   bands (ev):

   -11.5749   0.4233   4.2557   4.2557   7.5098   8.2032  12.0855  15.3167
    15.3167  19.9440  19.9440  20.4226  21.8865  22.9323  26.3392

     occupation numbers 
     1.0000   1.0000   1.0000   1.0000   1.0000   1.0000   1.0000   1.0000
     1.0000   0.9937   0.9937   0.5022   0.0000   0.0000   0.0000

          k = 0.4125 0.0589-0.0589 (  2322 PWs)   bands (ev):

   -11.2732  -0.2083   3.6107   4.0053   6.7851   8.2780  12.6588  15.3796
    15.8074  19.9729  20.9681  22.1544  23.3737  23.5878  26.2529

     occupation numbers 
     1.0000   1.0000   1.0000   1.0000   1.0000   1.0000   1.0000   1.0000
     1.0000   0.9904   0.0023   0.0000   0.0000   0.0000   0.0000

          k = 0.4714 0.1179-0.1179 (  2320 PWs)   bands (ev):

   -10.9424  -0.8550   2.5825   3.9219   6.4361   9.2660  12.7168  14.9917
    16.3281  19.6960  21.6367  23.4000  24.4869  25.1211  26.1231

     occupation numbers 
     1.0000   1.0000   1.0000   1.0000   1.0000   1.0000   1.0000   1.0000
     1.0000   0.9999   0.0000   0.0000   0.0000   0.0000   0.0000

          k =-0.1768-0.5303 0.5303 (  2319 PWs)   bands (ev):

   -10.6795  -1.3078   1.6689   4.0156   6.3787  10.4883  12.8080  14.4193
    16.4283  19.1320  21.2747  24.3077  25.0998  25.6489  26.1663

     occupation numbers 
     1.0000   1.0000   1.0000   1.0000   1.0000   1.0000   1.0000   1.0000
     1.0000   1.0000   0.0000   0.0000   0.0000   0.0000   0.0000

          k =-0.1179-0.4714 0.4714 (  2316 PWs)   bands (ev):

   -10.5856  -1.4373   1.0924   4.2767   6.6219  11.1383  13.3555  13.8259
    16.0392  18.5983  20.0189  24.7540  25.5827  25.7455  26.2418

     occupation numbers 
     1.0000   1.0000   1.0000   1.0000   1.0000   1.0000   1.0000   1.0000
     1.0000   1.0000   0.9823   0.0000   0.0000   0.0000   0.0000

          k =-0.0589-0.4125 0.4125 (  2318 PWs)   bands (ev):

   -10.7023  -1.2691   1.0051   4.6707   7.1641  11.2645  12.8963  13.2720
    16.6253  18.2904  18.6494  24.1572  25.7432  25.8420  26.2728

     occupation numbers 
     1.0000   1.0000   1.0000   1.0000   1.0000   1.0000   1.0000   1.0000
     1.0000   1.0000   1.0000   0.0000   0.0000   0.0000   0.0000

          k = 0.0000-0.3536 0.3536 (  2325 PWs)   bands (ev):

   -10.9767  -0.9979   1.5686   5.1248   7.9889  11.2510  11.4236  12.7847
    17.5540  17.5801  18.1320  23.5874  25.0754  25.9030  26.2999

     occupation numbers 
     1.0000   1.0000   1.0000   1.0000   1.0000   1.0000   1.0000   1.0000
     1.0000   1.0000   1.0000   0.0000   0.0000   0.0000   0.0000

          k = 0.4714 0.0000 0.0000 (  2297 PWs)   bands (ev):

   -11.0379  -0.4900   3.6778   3.6778   5.6275   7.4338  13.9604  16.1211
    16.1211  22.0474  22.0474  22.9222  23.1153  23.5113  26.1968

     occupation numbers 
     1.0000   1.0000   1.0000   1.0000   1.0000   1.0000   1.0000   1.0000
     1.0000   0.0000   0.0000   0.0000   0.0000   0.0000   0.0000

          k = 0.5303 0.0589-0.0589 (  2328 PWs)   bands (ev):

   -10.7722  -0.8490   2.7917   3.5248   5.3594   7.7100  14.3485  16.2161
    16.6641  21.8348  22.5980  23.9865  24.1880  24.7045  26.0635

     occupation numbers 
     1.0000   1.0000   1.0000   1.0000   1.0000   1.0000   1.0000   1.0000
     1.0000   0.0000   0.0000   0.0000   0.0000   0.0000   0.0000

          k =-0.1179-0.5893 0.5893 (  2322 PWs)   bands (ev):

   -10.5518  -1.0057   1.4497   3.5620   5.4901   8.9543  14.1930  15.7937
    16.7622  21.1390  22.0048  24.7780  25.0621  25.5158  26.1030

     occupation numbers 
     1.0000   1.0000   1.0000   1.0000   1.0000   1.0000   1.0000   1.0000
     1.0000   0.0001   0.0000   0.0000   0.0000   0.0000   0.0000

          k =-0.0589-0.5303 0.5303 (  2311 PWs)   bands (ev):

   -10.4529  -0.8256   0.3037   3.7866   5.7936  10.5779  13.9129  15.0864
    15.9889  20.4996  20.7294  24.8906  25.5502  25.6220  26.2416

     occupation numbers 
     1.0000   1.0000   1.0000   1.0000   1.0000   1.0000   1.0000   1.0000
     1.0000   0.3464   0.0560   0.0000   0.0000   0.0000   0.0000

          k =-0.0000-0.4714 0.4714 (  2315 PWs)   bands (ev):

   -10.5117  -0.7757   0.0140   4.1748   6.3458  11.8717  13.2325  14.2151
    15.5942  19.5045  19.6441  24.3689  25.7481  25.8142  26.2788

     occupation numbers 
     1.0000   1.0000   1.0000   1.0000   1.0000   1.0000   1.0000   1.0000
     1.0000   1.0000   1.0000   0.0000   0.0000   0.0000   0.0000

          k = 0.5893 0.0000 0.0000 (  2313 PWs)   bands (ev):

   -10.5888  -1.0808   3.3001   3.3001   4.3336   6.9633  15.4256  16.9157
    16.9157  23.5491  23.5492  24.0637  24.2603  24.8035  25.9509

     occupation numbers 
     1.0000   1.0000   1.0000   1.0000   1.0000   1.0000   1.0000   1.0000
     1.0000   0.0000   0.0000   0.0000   0.0000   0.0000   0.0000

          k =-0.0589-0.6482 0.6482 (  2313 PWs)   bands (ev):

   -10.4489  -1.1681   2.2422   3.2699   4.6696   7.4189  15.5417  16.8647
    17.0279  22.9892  23.0121  24.9688  25.0595  25.4269  25.6495

     occupation numbers 
     1.0000   1.0000   1.0000   1.0000   1.0000   1.0000   1.0000   1.0000
     1.0000   0.0000   0.0000   0.0000   0.0000   0.0000   0.0000

          k = 0.0000-0.5893 0.5893 (  2320 PWs)   bands (ev):

   -10.3993  -0.9604   0.9297   3.4371   5.1861   8.8398  15.0918  16.1786
    16.4235  21.7853  22.0293  25.1436  25.4648  25.5181  26.1094

     occupation numbers 
     1.0000   1.0000   1.0000   1.0000   1.0000   1.0000   1.0000   1.0000
     1.0000   0.0000   0.0000   0.0000   0.0000   0.0000   0.0000

          k =-0.7071 0.0000 0.0000 (  2298 PWs)   bands (ev):

   -10.4090  -1.2905   3.1696   3.1696   3.8776   6.8053  15.9839  17.2778
    17.2778  24.0041  24.0042  24.3260  24.7222  25.4028  25.4377

     occupation numbers 
     1.0000   1.0000   1.0000   1.0000   1.0000   1.0000   1.0000   1.0000
     1.0000   0.0000   0.0000   0.0000   0.0000   0.0000   0.0000

          k = 0.2357 0.1179-0.0000 (  2301 PWs)   bands (ev):

   -11.9510   1.1025   4.4566   5.3944   8.7912   9.6444  11.0587  13.9427
    15.0524  16.6494  17.7136  19.6516  21.6883  23.5015  25.4251

     occupation numbers 
     1.0000   1.0000   1.0000   1.0000   1.0000   1.0000   1.0000   1.0000
     1.0000   1.0000   1.0000   1.0000   0.0000   0.0000   0.0000

          k = 0.2946 0.1768-0.0589 (  2312 PWs)   bands (ev):

   -11.6119   0.0259   3.7405   5.2478   8.8633  10.0137  10.5675  13.4268
    15.3196  17.0727  18.8553  21.5433  23.0796  24.6787  25.9486

     occupation numbers 
     1.0000   1.0000   1.0000   1.0000   1.0000   1.0000   1.0000   1.0000
     1.0000   1.0000   1.0000   0.0000   0.0000   0.0000   0.0000

          k = 0.3536 0.2357-0.1179 (  2322 PWs)   bands (ev):

   -11.2268  -1.0295   3.2721   4.9748   8.6006   9.4000  11.9076  13.0876
    15.1555  17.8535  19.7159  22.9888  24.5533  25.4487  26.0261

     occupation numbers 
     1.0000   1.0000   1.0000   1.0000   1.0000   1.0000   1.0000   1.0000
     1.0000   1.0000   0.9999   0.0000   0.0000   0.0000   0.0000

          k =-0.2946-0.4125 0.5303 (  2323 PWs)   bands (ev):

   -10.9050  -1.8091   3.0253   4.7350   8.4803   8.9203  12.6166  13.6310
    14.8781  18.4497  19.9954  23.8343  25.1150  25.8119  26.0694

     occupation numbers 
     1.0000   1.0000   1.0000   1.0000   1.0000   1.0000   1.0000   1.0000
     1.0000   1.0000   0.9870   0.0000   0.0000   0.0000   0.0000

          k =-0.2357-0.3536 0.4714 (  2318 PWs)   bands (ev):

   -10.7763  -2.0991   2.9504   4.6412   8.5106   8.6844  12.6053  14.3288
    14.7689  18.2760  20.2991  23.9128  25.6694  25.6748  25.8642

     occupation numbers 
     1.0000   1.0000   1.0000   1.0000   1.0000   1.0000   1.0000   1.0000
     1.0000   1.0000   0.7413   0.0000   0.0000   0.0000   0.0000

          k = 0.3536 0.1179 0.0000 (  2317 PWs)   bands (ev):

   -11.4966   0.0876   3.6618   4.5075   8.0531   8.9368  11.4126  14.6751
    15.5298  18.7709  19.4062  21.8917  22.6529  23.9431  26.2730

     occupation numbers 
     1.0000   1.0000   1.0000   1.0000   1.0000   1.0000   1.0000   1.0000
     1.0000   1.0000   1.0000   0.0000   0.0000   0.0000   0.0000

          k = 0.4125 0.1768-0.0589 (  2320 PWs)   bands (ev):

   -11.1494  -0.6553   2.8486   4.1438   7.7482   9.5976  11.4781  14.5245
    16.0308  18.9290  20.1900  23.2288  24.0612  25.0161  26.1845

     occupation numbers 
     1.0000   1.0000   1.0000   1.0000   1.0000   1.0000   1.0000   1.0000
     1.0000   1.0000   0.8877   0.0000   0.0000   0.0000   0.0000

          k =-0.2357-0.4714 0.5893 (  2318 PWs)   bands (ev):

   -10.8300  -1.2970   2.2015   3.8675   7.6364  10.1443  11.9909  14.2534
    16.3065  18.5723  20.6746  24.0275  24.9748  25.6671  26.1121

     occupation numbers 
     1.0000   1.0000   1.0000   1.0000   1.0000   1.0000   1.0000   1.0000
     1.0000   1.0000   0.0960   0.0000   0.0000   0.0000   0.0000

          k =-0.1768-0.4125 0.5303 (  2313 PWs)   bands (ev):

   -10.6520  -1.6356   1.7733   3.8488   7.7588  10.0654  13.1419  13.8450
    16.3548  17.7882  20.6522  24.3596  25.5668  25.7532  26.1023

     occupation numbers 
     1.0000   1.0000   1.0000   1.0000   1.0000   1.0000   1.0000   1.0000
     1.0000   1.0000   0.1174   0.0000   0.0000   0.0000   0.0000

          k =-0.1179-0.3536 0.4714 (  2319 PWs)   bands (ev):

   -10.6948  -1.5536   1.6261   4.0883   8.0939   9.9293  13.0244  13.7038
    16.6125  17.5818  19.8325  24.4596  25.6769  25.7576  26.1715

     occupation numbers 
     1.0000   1.0000   1.0000   1.0000   1.0000   1.0000   1.0000   1.0000
     1.0000   1.0000   0.9989   0.0000   0.0000   0.0000   0.0000

          k =-0.0589-0.2946 0.4125 (  2317 PWs)   bands (ev):

   -10.9378  -1.1190   1.8583   4.5151   8.5928   9.9491  11.6681  13.5782
    16.7577  18.1110  19.0267  23.8325  25.0258  25.7748  26.2093

     occupation numbers 
     1.0000   1.0000   1.0000   1.0000   1.0000   1.0000   1.0000   1.0000
     1.0000   1.0000   1.0000   0.0000   0.0000   0.0000   0.0000

          k = 0.0000-0.2357 0.3536 (  2329 PWs)   bands (ev):

   -11.2795  -0.5432   2.5754   4.9864   9.1657  10.1052  10.3170  13.4042
    16.2245  17.8538  19.0402  23.2698  23.6494  25.2949  26.0275

     occupation numbers 
     1.0000   1.0000   1.0000   1.0000   1.0000   1.0000   1.0000   1.0000
     1.0000   1.0000   1.0000   0.0000   0.0000   0.0000   0.0000

          k = 0.4714 0.1179 0.0000 (  2323 PWs)   bands (ev):

   -10.9859  -0.6247   3.0115   3.4500   6.5159   8.3226  13.0674  15.7130
    16.3029  20.8062  21.1404  23.5729  23.9368  24.6016  26.1681

     occupation numbers 
     1.0000   1.0000   1.0000   1.0000   1.0000   1.0000   1.0000   1.0000
     1.0000   0.0234   0.0001   0.0000   0.0000   0.0000   0.0000

          k =-0.1768-0.5303 0.6482 (  2321 PWs)   bands (ev):

   -10.7065  -0.9483   1.9579   3.0857   6.7053   9.2674  12.8675  15.5147
    16.8523  20.0767  21.7516  24.0703  25.0412  25.4713  26.1071

     occupation numbers 
     1.0000   1.0000   1.0000   1.0000   1.0000   1.0000   1.0000   1.0000
     1.0000   0.9643   0.0000   0.0000   0.0000   0.0000   0.0000

          k =-0.1179-0.4714 0.5893 (  2310 PWs)   bands (ev):

   -10.5250  -1.0522   0.9624   3.1041   6.9494  10.6139  12.7131  14.7813
    16.8086  19.2943  21.5096  24.6284  25.4545  25.6452  26.1188

     occupation numbers 
     1.0000   1.0000   1.0000   1.0000   1.0000   1.0000   1.0000   1.0000
     1.0000   1.0000   0.0000   0.0000   0.0000   0.0000   0.0000

          k =-0.0589-0.4125 0.5303 (  2314 PWs)   bands (ev):

   -10.5116  -0.9807   0.4506   3.3949   7.3447  11.3306  12.9915  13.8001
    16.4938  18.7110  20.6137  24.5286  25.6324  25.7955  26.2159

     occupation numbers 
     1.0000   1.0000   1.0000   1.0000   1.0000   1.0000   1.0000   1.0000
     1.0000   1.0000   0.1616   0.0000   0.0000   0.0000   0.0000

          k =-0.0000-0.3536 0.4714 (  2307 PWs)   bands (ev):

   -10.6703  -1.0363   0.8027   3.9017   7.9096  11.2042  11.9007  13.9765
    17.0571  17.9048  19.6178  23.9598  25.7294  25.8264  26.2434

     occupation numbers 
     1.0000   1.0000   1.0000   1.0000   1.0000   1.0000   1.0000   1.0000
     1.0000   1.0000   1.0000   0.0000   0.0000   0.0000   0.0000

          k =-0.1179-0.5893 0.7071 (  2325 PWs)   bands (ev):

   -10.5650  -1.0127   2.4942   2.5963   5.6451   7.9229  14.5555  16.3188
    17.0851  21.6734  23.1529  24.1452  25.2155  25.2565  25.9299

     occupation numbers 
     1.0000   1.0000   1.0000   1.0000   1.0000   1.0000   1.0000   1.0000
     1.0000   0.0000   0.0000   0.0000   0.0000   0.0000   0.0000

          k =-0.0589-0.5303 0.6482 (  2314 PWs)   bands (ev):

   -10.4293  -0.9085   1.1484   2.5748   6.2252   9.0580  14.2715  15.4327
    17.2744  20.8228  22.8598  24.8135  25.3422  25.5267  25.9468

     occupation numbers 
     1.0000   1.0000   1.0000   1.0000   1.0000   1.0000   1.0000   1.0000
     1.0000   0.0190   0.0000   0.0000   0.0000   0.0000   0.0000

          k =-0.0000-0.4714 0.5893 (  2314 PWs)   bands (ev):

   -10.4106  -0.4703  -0.0131   2.8654   6.7322  10.6632  13.8766  14.0468
    16.8834  19.9015  21.8375  24.8000  25.5212  25.5952  26.1850

     occupation numbers 
     1.0000   1.0000   1.0000   1.0000   1.0000   1.0000   1.0000   1.0000
     1.0000   0.9967   0.0000   0.0000   0.0000   0.0000   0.0000

          k =-0.7071 0.1179 0.0000 (  2324 PWs)   bands (ev):

   -10.3985  -1.1252   2.0959   2.4543   5.3790   7.7855  15.4834  16.1182
    17.4434  22.0008  23.9486  24.5014  25.3235  25.4398  25.6125

     occupation numbers 
     1.0000   1.0000   1.0000   1.0000   1.0000   1.0000   1.0000   1.0000
     1.0000   0.0000   0.0000   0.0000   0.0000   0.0000   0.0000

          k =-0.2357-0.4714 0.7071 (  2318 PWs)   bands (ev):

   -10.8475  -0.9041   1.8508   3.4628   8.1802  10.0887  11.1570  14.8500
    16.8685  19.0567  20.1775  23.7333  25.1099  25.5626  26.1971

     occupation numbers 
     1.0000   1.0000   1.0000   1.0000   1.0000   1.0000   1.0000   1.0000
     1.0000   1.0000   0.8995   0.0000   0.0000   0.0000   0.0000

          k =-0.1768-0.4125 0.6482 (  2307 PWs)   bands (ev):

   -10.6054  -1.0570   1.1666   2.9055   8.4082  10.4717  11.6717  14.5385
    17.4721  18.0692  20.9972  24.2113  25.6645  25.6961  26.1370

     occupation numbers 
     1.0000   1.0000   1.0000   1.0000   1.0000   1.0000   1.0000   1.0000
     1.0000   1.0000   0.0014   0.0000   0.0000   0.0000   0.0000

          k =-0.1179-0.3536 0.5893 (  2314 PWs)   bands (ev):

   -10.5114  -1.1109   0.9259   2.7022   8.4691  10.3592  12.8634  13.6608
    17.4693  17.8966  21.3945  24.5254  25.4848  25.7999  26.1018

     occupation numbers 
     1.0000   1.0000   1.0000   1.0000   1.0000   1.0000   1.0000   1.0000
     1.0000   1.0000   0.0000   0.0000   0.0000   0.0000   0.0000

          k =-0.1179-0.4714 0.7071 (  2316 PWs)   bands (ev):

   -10.5073  -0.8392   1.3988   1.9675   7.6156   9.8507  12.4765  15.0761
    17.6008  19.5252  22.5280  24.2006  25.5922  25.6008  26.1040

     occupation numbers 
     1.0000   1.0000   1.0000   1.0000   1.0000   1.0000   1.0000   1.0000
     1.0000   1.0000   0.0000   0.0000   0.0000   0.0000   0.0000

          k =-0.0589-0.4125 0.6482 (  2305 PWs)   bands (ev):

   -10.4094  -0.5054   0.4780   1.7718   8.2125  10.9728  12.3044  13.6571
    17.9518  19.1217  22.7671  24.6692  25.2284  25.6048  26.0622

     occupation numbers 
     1.0000   1.0000   1.0000   1.0000   1.0000   1.0000   1.0000   1.0000
     1.0000   1.0000   0.0000   0.0000   0.0000   0.0000   0.0000

          k = 0.0000-0.3536 0.5893 (  2309 PWs)   bands (ev):

   -10.4472  -0.5570   0.3300   2.1459   8.5427  11.2291  11.9846  13.5061
    17.9052  18.5021  22.0410  24.4360  25.5592  25.6468  26.1206

     occupation numbers 
     1.0000   1.0000   1.0000   1.0000   1.0000   1.0000   1.0000   1.0000
     1.0000   1.0000   0.0000   0.0000   0.0000   0.0000   0.0000

          k =-0.7071 0.2357 0.0000 (  2318 PWs)   bands (ev):

   -10.3772  -0.6332   1.2402   1.2457   7.4336   9.7579  13.7966  14.0429
    17.9450  20.1252  23.8594  24.5248  25.0385  25.4555  26.0276

     occupation numbers 
     1.0000   1.0000   1.0000   1.0000   1.0000   1.0000   1.0000   1.0000
     1.0000   0.9395   0.0000   0.0000   0.0000   0.0000   0.0000

          k =-0.7071 0.3536 0.0000 (  2328 PWs)   bands (ev):

   -10.3665   0.1706   0.1706   0.9450   8.8268  11.9793  11.9793  12.2382
    18.8092  18.8092  23.8220  24.7226  24.7226  25.4660  25.9942

     occupation numbers 
     1.0000   1.0000   1.0000   1.0000   1.0000   1.0000   1.0000   1.0000
     1.0000   1.0000   0.0000   0.0000   0.0000   0.0000   0.0000

     the Fermi energy is    20.4236 ev

!    total energy              =    -468.62346866 Ry
     total all-electron energy =    -16997.326441 Ry
     estimated scf accuracy    <          4.6E-10 Ry
     smearing contrib. (-TS)   =      -0.00173476 Ry
     internal energy E=F+TS    =    -468.62173390 Ry

     The total energy is F=E-TS. E is the sum of the following terms:
     one-electron contribution =      34.23365323 Ry
     hartree contribution      =       2.34862840 Ry
     xc contribution           =     -82.56834687 Ry
     ewald contribution        =     -89.01687114 Ry
     one-center paw contrib.   =    -333.61879752 Ry
      -> PAW hartree energy AE =      44.69868965 Ry
      -> PAW hartree energy PS =     -44.49795446 Ry
      -> PAW xc energy AE      =    -406.84524987 Ry
      -> PAW xc energy PS      =      73.02708217 Ry
      -> total E_H with PAW    =       2.54936360 Ry
      -> total E_XC with PAW   =    -416.38651457 Ry

     convergence has been achieved in   8 iterations

     Forces acting on atoms (cartesian axes, Ry/au):

     atom    1 type  1   force =     0.00000000   -0.00000000   -0.00000000
     atom    2 type  2   force =    -0.00000000    0.00000000    0.00000000
     atom    3 type  2   force =     0.00000000   -0.00000000   -0.00000000
     atom    4 type  2   force =     0.00020291    0.00020291    0.00020291
     atom    5 type  2   force =    -0.00020291   -0.00020291   -0.00020291
     atom    6 type  2   force =    -0.00020291   -0.00020291    0.00020291
     atom    7 type  2   force =     0.00020291    0.00020291   -0.00020291
     atom    8 type  2   force =    -0.00020291    0.00020291   -0.00020291
     atom    9 type  2   force =     0.00020291   -0.00020291    0.00020291
     atom   10 type  2   force =     0.00020291   -0.00020291   -0.00020291
     atom   11 type  2   force =    -0.00020291    0.00020291    0.00020291
     The non-local contrib.  to forces
     atom    1 type  1   force =     0.00000000   -0.00000000   -0.00000000
     atom    2 type  2   force =     0.00000000   -0.00000000   -0.00000000
     atom    3 type  2   force =     0.00000000   -0.00000000   -0.00000000
     atom    4 type  2   force =     0.00303596    0.00303596    0.00303596
     atom    5 type  2   force =    -0.00303596   -0.00303596   -0.00303596
     atom    6 type  2   force =    -0.00303596   -0.00303596    0.00303596
     atom    7 type  2   force =     0.00303596    0.00303596   -0.00303596
     atom    8 type  2   force =    -0.00303596    0.00303596   -0.00303596
     atom    9 type  2   force =     0.00303596   -0.00303596    0.00303596
     atom   10 type  2   force =     0.00303596   -0.00303596   -0.00303596
     atom   11 type  2   force =    -0.00303596    0.00303596    0.00303596
     The ionic contribution  to forces
     atom    1 type  1   force =     0.00000000    0.00000000    0.00000000
     atom    2 type  2   force =    -0.00000000    0.00000000    0.00000000
     atom    3 type  2   force =     0.00000000    0.00000000    0.00000000
     atom    4 type  2   force =    -0.04323400   -0.04323400   -0.04323400
     atom    5 type  2   force =     0.04323400    0.04323400    0.04323400
     atom    6 type  2   force =     0.04323400    0.04323400   -0.04323400
     atom    7 type  2   force =    -0.04323400   -0.04323400    0.04323400
     atom    8 type  2   force =     0.04323400   -0.04323400    0.04323400
     atom    9 type  2   force =    -0.04323400    0.04323400   -0.04323400
     atom   10 type  2   force =    -0.04323400    0.04323400    0.04323400
     atom   11 type  2   force =     0.04323400   -0.04323400   -0.04323400
     The local contribution  to forces
     atom    1 type  1   force =    -0.00000000    0.00000000    0.00000000
     atom    2 type  2   force =    -0.00000000   -0.00000000   -0.00000000
     atom    3 type  2   force =    -0.00000000   -0.00000000   -0.00000000
     atom    4 type  2   force =     0.04039951    0.04039951    0.04039951
     atom    5 type  2   force =    -0.04039951   -0.04039951   -0.04039951
     atom    6 type  2   force =    -0.04039951   -0.04039951    0.04039951
     atom    7 type  2   force =     0.04039951    0.04039951   -0.04039951
     atom    8 type  2   force =    -0.04039951    0.04039951   -0.04039951
     atom    9 type  2   force =     0.04039951   -0.04039951    0.04039951
     atom   10 type  2   force =     0.04039951   -0.04039951   -0.04039951
     atom   11 type  2   force =    -0.04039951    0.04039951    0.04039951
     The core correction contribution to forces
     atom    1 type  1   force =    -0.00000000   -0.00000000    0.00000000
     atom    2 type  2   force =     0.00000000    0.00000000    0.00000000
     atom    3 type  2   force =     0.00000000    0.00000000    0.00000000
     atom    4 type  2   force =     0.00000000    0.00000000    0.00000000
     atom    5 type  2   force =     0.00000000    0.00000000    0.00000000
     atom    6 type  2   force =     0.00000000    0.00000000    0.00000000
     atom    7 type  2   force =     0.00000000    0.00000000    0.00000000
     atom    8 type  2   force =     0.00000000    0.00000000    0.00000000
     atom    9 type  2   force =     0.00000000    0.00000000    0.00000000
     atom   10 type  2   force =     0.00000000    0.00000000    0.00000000
     atom   11 type  2   force =     0.00000000    0.00000000    0.00000000
     The Hubbard contrib.    to forces
     atom    1 type  1   force =     0.00000000    0.00000000    0.00000000
     atom    2 type  2   force =     0.00000000    0.00000000    0.00000000
     atom    3 type  2   force =     0.00000000    0.00000000    0.00000000
     atom    4 type  2   force =     0.00000000    0.00000000    0.00000000
     atom    5 type  2   force =     0.00000000    0.00000000    0.00000000
     atom    6 type  2   force =     0.00000000    0.00000000    0.00000000
     atom    7 type  2   force =     0.00000000    0.00000000    0.00000000
     atom    8 type  2   force =     0.00000000    0.00000000    0.00000000
     atom    9 type  2   force =     0.00000000    0.00000000    0.00000000
     atom   10 type  2   force =     0.00000000    0.00000000    0.00000000
     atom   11 type  2   force =     0.00000000    0.00000000    0.00000000
     The SCF correction term to forces
     atom    1 type  1   force =     0.00000000   -0.00000000    0.00000000
     atom    2 type  2   force =     0.00000000    0.00000000    0.00000000
     atom    3 type  2   force =    -0.00000000   -0.00000000   -0.00000000
     atom    4 type  2   force =     0.00000144    0.00000144    0.00000144
     atom    5 type  2   force =    -0.00000144   -0.00000144   -0.00000144
     atom    6 type  2   force =    -0.00000144   -0.00000144    0.00000144
     atom    7 type  2   force =     0.00000144    0.00000144   -0.00000144
     atom    8 type  2   force =    -0.00000144    0.00000144   -0.00000144
     atom    9 type  2   force =     0.00000144   -0.00000144    0.00000144
     atom   10 type  2   force =     0.00000144   -0.00000144   -0.00000144
     atom   11 type  2   force =    -0.00000144    0.00000144    0.00000144

     Total force =     0.000994     Total SCF correction =     0.000007


     Computing stress (Cartesian axis) and pressure

          total   stress  (Ry/bohr**3)                   (kbar)     P=     2499.37
   0.01699035   0.00000000   0.00000000         2499.37        0.00        0.00
   0.00000000   0.01699035   0.00000000            0.00     2499.37        0.00
   0.00000000   0.00000000   0.01699035            0.00        0.00     2499.37

     kinetic stress (kbar)  19882.36      0.00     -0.00
                                0.00  19882.36      0.00
                                0.00      0.00  19882.36

     local   stress (kbar)   4637.82     -0.00     -0.00
                               -0.00   4637.82     -0.00
                               -0.00     -0.00   4637.82

     nonloc. stress (kbar)   6185.94     -0.00     -0.00
                               -0.00   6185.94     -0.00
                               -0.00     -0.00   6185.94

     hartree stress (kbar)    600.90     -0.00      0.00
                               -0.00    600.90     -0.00
                                0.00     -0.00    600.90

     exc-cor stress (kbar)  43096.03      0.00     -0.00
                                0.00  43096.03     -0.00
                               -0.00     -0.00  43096.03

     corecor stress (kbar) -49128.57     -0.00      0.00
                               -0.00 -49128.57     -0.00
                                0.00     -0.00 -49128.57

     ewald   stress (kbar) -22775.12      0.00      0.00
                                0.00 -22775.12      0.00
                                0.00      0.00 -22775.12

     hubbard stress (kbar)      0.00      0.00      0.00
                                0.00      0.00      0.00
                                0.00      0.00      0.00

     DFT-D   stress (kbar)      0.00      0.00      0.00
                                0.00      0.00      0.00
                                0.00      0.00      0.00

     XDM     stress (kbar)      0.00      0.00      0.00
                                0.00      0.00      0.00
                                0.00      0.00      0.00

     dft-nl  stress (kbar)      0.00      0.00      0.00
                                0.00      0.00      0.00
                                0.00      0.00      0.00

     TS-vdW  stress (kbar)      0.00      0.00      0.00
                                0.00      0.00      0.00
                                0.00      0.00      0.00

     MDB     stress (kbar)      0.00      0.00      0.00
                                0.00      0.00      0.00
                                0.00      0.00      0.00

     3D-RISM stress (kbar)      0.00      0.00      0.00
                                0.00      0.00      0.00
                                0.00      0.00      0.00


     Writing all to output data dir ./tmp/La1H10.save/ :
     XML data file, charge density, pseudopotentials, collected wavefunctions
 
     init_run     :      0.54s CPU      1.05s WALL (       1 calls)
     electrons    :      3.77s CPU      4.29s WALL (       1 calls)
     forces       :      0.05s CPU      0.06s WALL (       1 calls)
     stress       :      0.18s CPU      0.25s WALL (       1 calls)

     Called by init_run:
     wfcinit      :      0.08s CPU      0.23s WALL (       1 calls)
     wfcinit:atom :      0.00s CPU      0.00s WALL (      18 calls)
     wfcinit:wfcr :      0.07s CPU      0.15s WALL (      18 calls)
     potinit      :      0.24s CPU      0.33s WALL (       1 calls)
     hinit0       :      0.11s CPU      0.32s WALL (       1 calls)

     Called by electrons:
     c_bands      :      1.27s CPU      1.48s WALL (       9 calls)
     sum_band     :      0.45s CPU      0.48s WALL (       9 calls)
     v_of_rho     :      0.08s CPU      0.11s WALL (       9 calls)
     v_h          :      0.01s CPU      0.01s WALL (       9 calls)
     v_xc         :      0.10s CPU      0.12s WALL (      11 calls)
     newd         :      0.21s CPU      0.23s WALL (       9 calls)
     PAW_pot      :      1.98s CPU      2.07s WALL (       9 calls)
     mix_rho      :      0.01s CPU      0.03s WALL (       9 calls)

     Called by c_bands:
     init_us_2    :      0.03s CPU      0.04s WALL (     378 calls)
     cegterg      :      1.06s CPU      1.14s WALL (     162 calls)

     Called by sum_band:
     sum_band:wei :      0.01s CPU      0.01s WALL (       9 calls)
     sum_band:loo :      0.15s CPU      0.17s WALL (       9 calls)
     sum_band:buf :      0.00s CPU      0.00s WALL (     162 calls)
     sum_band:ini :      0.02s CPU      0.02s WALL (     162 calls)
     sum_band:cal :      0.01s CPU      0.01s WALL (     162 calls)
     sum_band:bec :      0.00s CPU      0.00s WALL (     162 calls)
     addusdens    :      0.25s CPU      0.27s WALL (       9 calls)
                                        0.00s GPU  (       9 calls)
     addusd:skk   :      0.00s CPU      0.00s WALL (      18 calls)
                                        0.00s GPU  (      18 calls)

     Called by *egterg:
     cdiaghg      :      0.19s CPU      0.27s WALL (     724 calls)
     cegterg:over :      0.03s CPU      0.03s WALL (     580 calls)
     cegterg:upda :      0.01s CPU      0.01s WALL (     580 calls)
     cegterg:last :      0.01s CPU      0.01s WALL (     368 calls)
     h_psi        :      0.83s CPU      0.91s WALL (     760 calls)
     s_psi        :      0.02s CPU      0.02s WALL (     760 calls)
     g_psi        :      0.00s CPU      0.00s WALL (     580 calls)

     Called by h_psi:
     h_psi:calbec :      0.03s CPU      0.04s WALL (     760 calls)
     vloc_psi     :      0.78s CPU      0.84s WALL (     760 calls)
     add_vuspsi   :      0.02s CPU      0.02s WALL (     760 calls)

     General routines
     calbec       :      0.05s CPU      0.06s WALL (    1228 calls)
     fft          :      0.04s CPU      0.14s WALL (     141 calls)
     ffts         :      0.00s CPU      0.00s WALL (      18 calls)
     fftw         :      0.71s CPU      0.78s WALL (   17528 calls)
     interpolate  :      0.01s CPU      0.01s WALL (       9 calls)
 
     Parallel routines

     PAW routines
     PAW_pot      :      1.98s CPU      2.07s WALL (       9 calls)
     PAW_symme    :      0.04s CPU      0.04s WALL (      18 calls)
 
     PWSCF        :      4.90s CPU      8.43s WALL

 
   This run was terminated on:  10:27:17  22Oct2025            

=------------------------------------------------------------------------------=
   JOB DONE.
=------------------------------------------------------------------------------=
