
     Program PHONON v.7.4.1 starts on 22Oct2025 at 13:57: 7 

     This program is part of the open-source Quantum ESPRESSO suite
     for quantum simulation of materials; please cite
         "P. Giannozzi et al., J. Phys.:Condens. Matter 21 395502 (2009);
         "P. Giannozzi et al., J. Phys.:Condens. Matter 29 465901 (2017);
         "P. Giannozzi et al., J. Chem. Phys. 152 154105 (2020);
          URL http://www.quantum-espresso.org", 
     in publications or presentations arising from this work. More details at
     http://www.quantum-espresso.org/quote

     Parallel version (MPI), running on    48 processors

     MPI processes distributed on     1 nodes
     180839 MiB available memory on the printing compute node when the environment starts
 
     Waiting for input...
     Reading input from standard input

     Reading xml data from directory:

     ./tmp/La1H10.save/
 
     K-points division:     npool     =       4
     R & G space division:  proc/nbgrp/npool/nimage =      12
     Subspace diagonalization in iterative solution of the eigenvalue problem:
     a serial algorithm will be used

     file La.pbe-spfn-kjpaw_psl.1.0.0.UPF: wavefunction(s)  5S 5D 4F renormalized
     file H.pbe-kjpaw_psl.1.0.0.UPF: wavefunction(s)  1S renormalized

     IMPORTANT: XC functional enforced from input :
     Exchange-correlation= PBE
                           (   1   4   3   4   0   0   0)
     Any further DFT definition will be discarded
     Please, verify this is what you really want

 
     Parallelization info
     --------------------
     sticks:   dense  smooth     PW     G-vecs:    dense   smooth      PW
     Min         231      77     23                 8029     1540     259
     Max         232      78     24                 8031     1543     261
     Sum        2773     925    283                96353    18499    3119
 
     Using Slab Decomposition
 
     Reading collected, re-writing distributed wavefunctions in ./tmp/


     Dynamical matrices for ( 6, 6, 6)  uniform grid of q-points
     (  16 q-points):
       N         xq(1)         xq(2)         xq(3) 
       1   0.000000000   0.000000000   0.000000000
       2   0.117851130   0.117851130  -0.117851130
       3   0.235702260   0.235702260  -0.235702260
       4  -0.353553391  -0.353553391   0.353553391
       5   0.235702260   0.000000000   0.000000000
       6   0.353553391   0.117851130  -0.117851130
       7  -0.235702260  -0.471404521   0.471404521
       8  -0.117851130  -0.353553391   0.353553391
       9   0.000000000  -0.235702260   0.235702260
      10   0.471404521   0.000000000   0.000000000
      11  -0.117851130  -0.589255651   0.589255651
      12  -0.000000000  -0.471404521   0.471404521
      13  -0.707106781   0.000000000   0.000000000
      14  -0.235702260  -0.471404521   0.707106781
      15  -0.117851130  -0.353553391   0.589255651
      16  -0.707106781   0.235702260   0.000000000

     Number and degeneracy of irreps per q-point
       N         xq(1)         xq(2)         xq(3)   N irreps
       1   0.000000000   0.000000000   0.000000000      13
        1   2   3   3   3   3   1   2   3   3   3   3   3
       2   0.117851130   0.117851130  -0.117851130      22
        1   1   1   1   1   1   1   1   1   1   1   2   2   2   2   2   2   2
   2   2   2   2
       3   0.235702260   0.235702260  -0.235702260      22
        1   1   1   1   1   1   1   1   1   1   1   2   2   2   2   2   2   2
   2   2   2   2
       4  -0.353553391  -0.353553391   0.353553391      22
        1   1   1   1   1   2   2   2   2   2   1   1   1   1   1   1   2   2
   2   2   2   2
       5   0.235702260   0.000000000   0.000000000      24
        1   1   1   1   1   1   1   1   1   1   1   1   1   1   1   2   2   2
   2   2   2   2   2   2
       6   0.353553391   0.117851130  -0.117851130      33
     No degeneracy
       7  -0.235702260  -0.471404521   0.471404521      33
     No degeneracy
       8  -0.117851130  -0.353553391   0.353553391      33
     No degeneracy
       9   0.000000000  -0.235702260   0.235702260      33
     No degeneracy
      10   0.471404521   0.000000000   0.000000000      24
        1   1   1   1   1   1   1   1   1   1   1   1   1   1   1   2   2   2
   2   2   2   2   2   2
      11  -0.117851130  -0.589255651   0.589255651      33
     No degeneracy
      12  -0.000000000  -0.471404521   0.471404521      33
     No degeneracy
      13  -0.707106781   0.000000000   0.000000000      24
        1   1   1   1   1   1   1   2   2   2   2   1   1   1   1   1   1   1
   1   2   2   2   2   2
      14  -0.235702260  -0.471404521   0.707106781      33
     No degeneracy
      15  -0.117851130  -0.353553391   0.589255651      33
     No degeneracy
Eigenvectors exchange needed    7   16
      16  -0.707106781   0.235702260   0.000000000      32
        1   1   1   1   1   1   2   1   1   1   1   1   1   1   1   1   1   1
   1   1   1   1   1   1   1   1   1   1   1   1   1   1

     Saving dvscf to file. Distribute only q points, not irreducible representations.

     Calculation of q =   -0.2357023  -0.4714045   0.4714045
 
     Parallelization info
     --------------------
     sticks:   dense  smooth     PW     G-vecs:    dense   smooth      PW
     Min         231      77     26                 8029     1540     309
     Max         232      78     27                 8031     1543     312
     Sum        2773     925    313                96353    18499    3719
 
     Using Slab Decomposition
 

     Title: 
     Electron-phonon coefficients for La1H10                                    


     bravais-lattice index     =            0
     lattice parameter (alat)  =       6.4716  a.u.
     unit-cell volume          =     191.6541 (a.u.)^3
     number of atoms/cell      =           11
     number of atomic types    =            2
     number of electrons       =        21.00
     number of Kohn-Sham states=           15
     kinetic-energy cutoff     =      80.0000  Ry
     charge density cutoff     =     960.0000  Ry
     Exchange-correlation= PBE
                           (   1   4   3   4   0   0   0)

     celldm(1)=   6.471590  celldm(2)=   0.000000  celldm(3)=   0.000000
     celldm(4)=   0.000000  celldm(5)=   0.000000  celldm(6)=   0.000000

     crystal axes: (cart. coord. in units of alat)
               a(1) = (   0.000000   0.707107   0.707107 )  
               a(2) = (   0.707107   0.000000   0.707107 )  
               a(3) = (   0.707107   0.707107   0.000000 )  

     reciprocal axes: (cart. coord. in units 2 pi/alat)
               b(1) = ( -0.707107  0.707107  0.707107 )  
               b(2) = (  0.707107 -0.707107  0.707107 )  
               b(3) = (  0.707107  0.707107 -0.707107 )  


     PseudoPot. # 1 for La read from file:
     /work/home/mayuan/workplace/1.typical_hydride/003.MH10/1.LaH10/250/Tc-666-paw/pp/La.pbe-spfn-kjpaw_psl.1.0.0.UPF
     MD5 check sum: ccc10218a00d76b68822f6b8f5772390
     Pseudo is Projector augmented-wave + core cor, Zval = 11.0
     Generated using 'atomic' code by A. Dal Corso  v.7.1
     Shape of augmentation charge: PSQ
     Using radial grid of 1253 points,  8 beta functions with: 
                l(1) =   0
                l(2) =   0
                l(3) =   1
                l(4) =   1
                l(5) =   2
                l(6) =   2
                l(7) =   3
                l(8) =   3
     Q(r) pseudized with 0 coefficients 


     PseudoPot. # 2 for H  read from file:
     /work/home/mayuan/workplace/1.typical_hydride/003.MH10/1.LaH10/250/Tc-666-paw/pp/H.pbe-kjpaw_psl.1.0.0.UPF
     MD5 check sum: 3bb27c602ede137025941d095c9090b7
     Pseudo is Projector augmented-wave, Zval =  1.0
     Generated using 'atomic' code by A. Dal Corso  v.7.1
     Shape of augmentation charge: PSQ
     Using radial grid of  929 points,  2 beta functions with: 
                l(1) =   0
                l(2) =   0
     Q(r) pseudized with 0 coefficients 


     atomic species   valence    mass     pseudopotential
     La               11.00   138.90547     La( 1.00)
     H                 1.00     1.00794     H ( 1.00)

     48 Sym. Ops., with inversion, found



   Cartesian axes

     site n.     atom                  positions (alat units)
         1        La     tau(   1) = (   0.0000000   0.0000000   0.0000000  )
         2        H      tau(   2) = (   0.3535534   0.3535534   0.3535534  )
         3        H      tau(   3) = (   1.0606602   1.0606602   1.0606602  )
         4        H      tau(   4) = (   0.8776866   0.8776866   0.8776866  )
         5        H      tau(   5) = (   0.5365270   0.5365270   0.5365270  )
         6        H      tau(   6) = (   0.5365270   0.5365270   0.8776866  )
         7        H      tau(   7) = (   0.8776866   0.8776866   0.5365270  )
         8        H      tau(   8) = (   0.5365270   0.8776866   0.5365270  )
         9        H      tau(   9) = (   0.8776866   0.5365270   0.8776866  )
        10        H      tau(  10) = (   0.8776866   0.5365270   0.5365270  )
        11        H      tau(  11) = (   0.5365270   0.8776866   0.8776866  )

     number of k points=  1872  Gaussian smearing, width (Ry)=  0.0200

     Number of k-points >= 100: set verbosity='high' to print them.

     Dense  grid:    96353 G-vectors     FFT dimensions: (  64,  64,  64)

     Smooth grid:    18499 G-vectors     FFT dimensions: (  40,  40,  40)

     Estimated max dynamical RAM per process >      32.75 MB

     Estimated total dynamical RAM >       1.53 GB

     The potential is recalculated from file :
     ./tmp/_ph0/La1H10.q_7/La1H10.save/charge-density

     Starting wfcs are   30 atomic wfcs
     Checking if some PAW data can be deallocated... 

     Band Structure Calculation
     Davidson diagonalization with overlap

     ethr =  4.76E-11,  avg # of iterations = 30.6

     total cpu time spent up to now is       48.8 secs

     End of band structure calculation

     Number of k-points >= 100: set verbosity='high' to print the bands.

     the Fermi energy is    20.4236 ev

     Writing config to output data dir ./tmp/_ph0/La1H10.q_7/La1H10.save/ :
     XML data file

     Electron-phonon coefficients for La1H10                                    

     bravais-lattice index     =            0
     lattice parameter (alat)  =       6.4716  a.u.
     unit-cell volume          =     191.6541 (a.u.)^3
     number of atoms/cell      =           11
     number of atomic types    =            2
     kinetic-energy cut-off    =      80.0000  Ry
     charge density cut-off    =     960.0000  Ry
     convergence threshold     =      1.0E-14
     beta                      =       0.3000
     number of iterations used =            4
     Exchange-correlation= PBE
                           (   1   4   3   4   0   0   0)


     celldm(1)=    6.47159  celldm(2)=    0.00000  celldm(3)=    0.00000
     celldm(4)=    0.00000  celldm(5)=    0.00000  celldm(6)=    0.00000

     crystal axes: (cart. coord. in units of alat)
               a(1) = (  0.0000  0.7071  0.7071 )  
               a(2) = (  0.7071  0.0000  0.7071 )  
               a(3) = (  0.7071  0.7071  0.0000 )  

     reciprocal axes: (cart. coord. in units 2 pi/alat)
               b(1) = ( -0.7071  0.7071  0.7071 )  
               b(2) = (  0.7071 -0.7071  0.7071 )  
               b(3) = (  0.7071  0.7071 -0.7071 )  


     Atoms inside the unit cell: 

     Cartesian axes

     site n.  atom      mass           positions (alat units)
        1  La    138.9055   tau(    1) = (    0.00000    0.00000    0.00000  )
        2  H       1.0079   tau(    2) = (    0.35355    0.35355    0.35355  )
        3  H       1.0079   tau(    3) = (    1.06066    1.06066    1.06066  )
        4  H       1.0079   tau(    4) = (    0.87769    0.87769    0.87769  )
        5  H       1.0079   tau(    5) = (    0.53653    0.53653    0.53653  )
        6  H       1.0079   tau(    6) = (    0.53653    0.53653    0.87769  )
        7  H       1.0079   tau(    7) = (    0.87769    0.87769    0.53653  )
        8  H       1.0079   tau(    8) = (    0.53653    0.87769    0.53653  )
        9  H       1.0079   tau(    9) = (    0.87769    0.53653    0.87769  )
       10  H       1.0079   tau(   10) = (    0.87769    0.53653    0.53653  )
       11  H       1.0079   tau(   11) = (    0.53653    0.87769    0.87769  )

     Computing dynamical matrix for 
                    q = (  -0.2357023  -0.4714045   0.4714045 )
 
      2 Sym.Ops. (no q -> -q+G )


     G cutoff = 1018.4355  (   8029 G-vectors)     FFT grid: ( 64, 64, 64)
     G cutoff =  339.4785  (   1542 G-vectors)  smooth grid: ( 40, 40, 40)

     number of k points=  1872  Gaussian smearing, width (Ry)=  0.0200

     PseudoPot. # 1 for La read from file:
     /work/home/mayuan/workplace/1.typical_hydride/003.MH10/1.LaH10/250/Tc-666-paw/pp/La.pbe-spfn-kjpaw_psl.1.0.0.UPF
     MD5 check sum: ccc10218a00d76b68822f6b8f5772390
     Pseudo is Projector augmented-wave + core cor, Zval = 11.0
     Generated using 'atomic' code by A. Dal Corso  v.7.1
     Shape of augmentation charge: PSQ
     Using radial grid of 1253 points,  8 beta functions with: 
                l(1) =   0
                l(2) =   0
                l(3) =   1
                l(4) =   1
                l(5) =   2
                l(6) =   2
                l(7) =   3
                l(8) =   3
     Q(r) pseudized with 0 coefficients 


     PseudoPot. # 2 for H  read from file:
     /work/home/mayuan/workplace/1.typical_hydride/003.MH10/1.LaH10/250/Tc-666-paw/pp/H.pbe-kjpaw_psl.1.0.0.UPF
     MD5 check sum: 3bb27c602ede137025941d095c9090b7
     Pseudo is Projector augmented-wave, Zval =  1.0
     Generated using 'atomic' code by A. Dal Corso  v.7.1
     Shape of augmentation charge: PSQ
     Using radial grid of  929 points,  2 beta functions with: 
                l(1) =   0
                l(2) =   0
     Q(r) pseudized with 0 coefficients 


     Mode symmetry, C_s (m)     point group:


     Atomic displacements:
     There are   33 irreducible representations

     Representation     1      1 modes -  To be done

     Representation     2      1 modes -  To be done

     Representation     3      1 modes -  To be done

     Representation     4      1 modes -  To be done

     Representation     5      1 modes -  To be done

     Representation     6      1 modes -  To be done

     Representation     7      1 modes -  To be done

     Representation     8      1 modes -  To be done

     Representation     9      1 modes -  To be done

     Representation    10      1 modes -  To be done

     Representation    11      1 modes -  To be done

     Representation    12      1 modes -  To be done

     Representation    13      1 modes -  To be done

     Representation    14      1 modes -  To be done

     Representation    15      1 modes -  To be done

     Representation    16      1 modes -  To be done

     Representation    17      1 modes -  To be done

     Representation    18      1 modes -  To be done

     Representation    19      1 modes -  To be done

     Representation    20      1 modes -  To be done

     Representation    21      1 modes -  To be done

     Representation    22      1 modes -  To be done

     Representation    23      1 modes -  To be done

     Representation    24      1 modes -  To be done

     Representation    25      1 modes -  To be done

     Representation    26      1 modes -  To be done

     Representation    27      1 modes -  To be done

     Representation    28      1 modes -  To be done

     Representation    29      1 modes -  To be done

     Representation    30      1 modes -  To be done

     Representation    31      1 modes -  To be done

     Representation    32      1 modes -  To be done

     Representation    33      1 modes -  To be done


     Message from routine init_vloc:
     Interpolation table for Vloc re-allocated

     Alpha used in Ewald sum =   2.8000
     PHONON       :   1m14.00s CPU   1m34.41s WALL



     Representation #   1 mode #   1

     Self-consistent Calculation

      iter #   1 total cpu time :   122.9 secs   av.it.:   5.0
      thresh= 1.000E-02 alpha_mix =  0.300 |ddv_scf|^2 =  9.334E-07

      iter #   2 total cpu time :   152.2 secs   av.it.:  11.3
      thresh= 9.661E-05 alpha_mix =  0.300 |ddv_scf|^2 =  5.098E-07

      iter #   3 total cpu time :   181.8 secs   av.it.:  10.5
      thresh= 7.140E-05 alpha_mix =  0.300 |ddv_scf|^2 =  4.587E-09

      iter #   4 total cpu time :   211.7 secs   av.it.:  11.4
      thresh= 6.773E-06 alpha_mix =  0.300 |ddv_scf|^2 =  7.558E-10

      iter #   5 total cpu time :   240.7 secs   av.it.:  12.3
      thresh= 2.749E-06 alpha_mix =  0.300 |ddv_scf|^2 =  6.731E-11

      iter #   6 total cpu time :   270.8 secs   av.it.:  12.5
      thresh= 8.204E-07 alpha_mix =  0.300 |ddv_scf|^2 =  5.282E-12

      iter #   7 total cpu time :   302.8 secs   av.it.:  11.9
      thresh= 2.298E-07 alpha_mix =  0.300 |ddv_scf|^2 =  1.293E-12

      iter #   8 total cpu time :   338.2 secs   av.it.:  12.5
      thresh= 1.137E-07 alpha_mix =  0.300 |ddv_scf|^2 =  1.338E-13

      iter #   9 total cpu time :   371.4 secs   av.it.:  11.3
      thresh= 3.658E-08 alpha_mix =  0.300 |ddv_scf|^2 =  4.814E-14

      iter #  10 total cpu time :   407.5 secs   av.it.:  12.1
      thresh= 2.194E-08 alpha_mix =  0.300 |ddv_scf|^2 =  5.631E-15

     End of self-consistent calculation

     Convergence has been achieved 


     Representation #   2 mode #   2

     Self-consistent Calculation

      iter #   1 total cpu time :   458.2 secs   av.it.:   4.9
      thresh= 1.000E-02 alpha_mix =  0.300 |ddv_scf|^2 =  3.103E-07

      iter #   2 total cpu time :   488.1 secs   av.it.:  11.4
      thresh= 5.571E-05 alpha_mix =  0.300 |ddv_scf|^2 =  1.665E-07

      iter #   3 total cpu time :   521.7 secs   av.it.:  10.6
      thresh= 4.080E-05 alpha_mix =  0.300 |ddv_scf|^2 =  3.530E-09

      iter #   4 total cpu time :   552.7 secs   av.it.:  11.8
      thresh= 5.941E-06 alpha_mix =  0.300 |ddv_scf|^2 =  5.279E-10

      iter #   5 total cpu time :   584.6 secs   av.it.:  12.0
      thresh= 2.298E-06 alpha_mix =  0.300 |ddv_scf|^2 =  8.380E-11

      iter #   6 total cpu time :   616.2 secs   av.it.:  12.4
      thresh= 9.154E-07 alpha_mix =  0.300 |ddv_scf|^2 =  7.491E-12

      iter #   7 total cpu time :   649.4 secs   av.it.:  12.0
      thresh= 2.737E-07 alpha_mix =  0.300 |ddv_scf|^2 =  1.762E-12

      iter #   8 total cpu time :   682.4 secs   av.it.:  12.6
      thresh= 1.327E-07 alpha_mix =  0.300 |ddv_scf|^2 =  1.318E-13

      iter #   9 total cpu time :   714.1 secs   av.it.:  11.7
      thresh= 3.631E-08 alpha_mix =  0.300 |ddv_scf|^2 =  6.541E-14

      iter #  10 total cpu time :   748.1 secs   av.it.:  11.7
      thresh= 2.558E-08 alpha_mix =  0.300 |ddv_scf|^2 =  1.141E-14

      iter #  11 total cpu time :   784.4 secs   av.it.:  12.2
      thresh= 1.068E-08 alpha_mix =  0.300 |ddv_scf|^2 =  1.280E-15

     End of self-consistent calculation

     Convergence has been achieved 


     Representation #   3 mode #   3

     Self-consistent Calculation

      iter #   1 total cpu time :   829.5 secs   av.it.:   7.9
      thresh= 1.000E-02 alpha_mix =  0.300 |ddv_scf|^2 =  1.120E-04

      iter #   2 total cpu time :   859.1 secs   av.it.:  11.1
      thresh= 1.058E-03 alpha_mix =  0.300 |ddv_scf|^2 =  6.212E-05

      iter #   3 total cpu time :   888.7 secs   av.it.:  10.3
      thresh= 7.882E-04 alpha_mix =  0.300 |ddv_scf|^2 =  3.451E-07

      iter #   4 total cpu time :   918.5 secs   av.it.:  11.0
      thresh= 5.874E-05 alpha_mix =  0.300 |ddv_scf|^2 =  3.390E-08

      iter #   5 total cpu time :   951.6 secs   av.it.:  12.2
      thresh= 1.841E-05 alpha_mix =  0.300 |ddv_scf|^2 =  4.477E-09

      iter #   6 total cpu time :   981.6 secs   av.it.:  12.5
      thresh= 6.691E-06 alpha_mix =  0.300 |ddv_scf|^2 =  1.825E-10

      iter #   7 total cpu time :  1012.5 secs   av.it.:  11.6
      thresh= 1.351E-06 alpha_mix =  0.300 |ddv_scf|^2 =  3.645E-11

      iter #   8 total cpu time :  1043.2 secs   av.it.:  12.2
      thresh= 6.037E-07 alpha_mix =  0.300 |ddv_scf|^2 =  2.350E-12

      iter #   9 total cpu time :  1073.6 secs   av.it.:  11.6
      thresh= 1.533E-07 alpha_mix =  0.300 |ddv_scf|^2 =  8.886E-13

      iter #  10 total cpu time :  1103.1 secs   av.it.:  11.4
      thresh= 9.426E-08 alpha_mix =  0.300 |ddv_scf|^2 =  2.079E-13

      iter #  11 total cpu time :  1137.8 secs   av.it.:  12.0
      thresh= 4.560E-08 alpha_mix =  0.300 |ddv_scf|^2 =  2.750E-14

      iter #  12 total cpu time :  1167.4 secs   av.it.:  11.9
      thresh= 1.658E-08 alpha_mix =  0.300 |ddv_scf|^2 =  5.958E-15

     End of self-consistent calculation

     Convergence has been achieved 


     Representation #   4 mode #   4

     Self-consistent Calculation

      iter #   1 total cpu time :  1212.8 secs   av.it.:   5.3
      thresh= 1.000E-02 alpha_mix =  0.300 |ddv_scf|^2 =  1.754E-06

      iter #   2 total cpu time :  1239.7 secs   av.it.:  11.3
      thresh= 1.325E-04 alpha_mix =  0.300 |ddv_scf|^2 =  8.899E-07

      iter #   3 total cpu time :  1266.6 secs   av.it.:  10.5
      thresh= 9.433E-05 alpha_mix =  0.300 |ddv_scf|^2 =  9.637E-09

      iter #   4 total cpu time :  1296.2 secs   av.it.:  11.2
      thresh= 9.817E-06 alpha_mix =  0.300 |ddv_scf|^2 =  9.547E-10

      iter #   5 total cpu time :  1326.1 secs   av.it.:  12.4
      thresh= 3.090E-06 alpha_mix =  0.300 |ddv_scf|^2 =  6.729E-11

      iter #   6 total cpu time :  1356.6 secs   av.it.:  12.3
      thresh= 8.203E-07 alpha_mix =  0.300 |ddv_scf|^2 =  7.578E-12

      iter #   7 total cpu time :  1391.7 secs   av.it.:  12.1
      thresh= 2.753E-07 alpha_mix =  0.300 |ddv_scf|^2 =  1.194E-12

      iter #   8 total cpu time :  1421.5 secs   av.it.:  12.3
      thresh= 1.093E-07 alpha_mix =  0.300 |ddv_scf|^2 =  1.829E-13

      iter #   9 total cpu time :  1451.7 secs   av.it.:  11.5
      thresh= 4.276E-08 alpha_mix =  0.300 |ddv_scf|^2 =  6.434E-14

      iter #  10 total cpu time :  1482.2 secs   av.it.:  12.0
      thresh= 2.536E-08 alpha_mix =  0.300 |ddv_scf|^2 =  5.972E-15

     End of self-consistent calculation

     Convergence has been achieved 


     Representation #   5 mode #   5

     Self-consistent Calculation

      iter #   1 total cpu time :  1523.6 secs   av.it.:   5.0
      thresh= 1.000E-02 alpha_mix =  0.300 |ddv_scf|^2 =  5.865E-07

      iter #   2 total cpu time :  1549.1 secs   av.it.:  11.3
      thresh= 7.658E-05 alpha_mix =  0.300 |ddv_scf|^2 =  3.488E-07

      iter #   3 total cpu time :  1573.9 secs   av.it.:  10.5
      thresh= 5.906E-05 alpha_mix =  0.300 |ddv_scf|^2 =  3.083E-09

      iter #   4 total cpu time :  1601.6 secs   av.it.:  11.8
      thresh= 5.552E-06 alpha_mix =  0.300 |ddv_scf|^2 =  5.987E-10

      iter #   5 total cpu time :  1634.0 secs   av.it.:  12.1
      thresh= 2.447E-06 alpha_mix =  0.300 |ddv_scf|^2 =  7.465E-11

      iter #   6 total cpu time :  1667.5 secs   av.it.:  12.4
      thresh= 8.640E-07 alpha_mix =  0.300 |ddv_scf|^2 =  7.321E-12

      iter #   7 total cpu time :  1703.8 secs   av.it.:  11.9
      thresh= 2.706E-07 alpha_mix =  0.300 |ddv_scf|^2 =  1.556E-12

      iter #   8 total cpu time :  1737.2 secs   av.it.:  12.4
      thresh= 1.247E-07 alpha_mix =  0.300 |ddv_scf|^2 =  1.091E-13

      iter #   9 total cpu time :  1769.4 secs   av.it.:  11.8
      thresh= 3.302E-08 alpha_mix =  0.300 |ddv_scf|^2 =  4.694E-14

      iter #  10 total cpu time :  1797.9 secs   av.it.:  11.8
      thresh= 2.167E-08 alpha_mix =  0.300 |ddv_scf|^2 =  6.091E-15

     End of self-consistent calculation

     Convergence has been achieved 


     Representation #   6 mode #   6

     Self-consistent Calculation

      iter #   1 total cpu time :  1842.8 secs   av.it.:   5.0
      thresh= 1.000E-02 alpha_mix =  0.300 |ddv_scf|^2 =  1.143E-06

      iter #   2 total cpu time :  1870.0 secs   av.it.:  11.2
      thresh= 1.069E-04 alpha_mix =  0.300 |ddv_scf|^2 =  6.530E-07

      iter #   3 total cpu time :  1900.5 secs   av.it.:  10.4
      thresh= 8.081E-05 alpha_mix =  0.300 |ddv_scf|^2 =  4.205E-09

      iter #   4 total cpu time :  1930.2 secs   av.it.:  11.4
      thresh= 6.484E-06 alpha_mix =  0.300 |ddv_scf|^2 =  7.150E-10

      iter #   5 total cpu time :  1960.6 secs   av.it.:  12.2
      thresh= 2.674E-06 alpha_mix =  0.300 |ddv_scf|^2 =  7.825E-11

      iter #   6 total cpu time :  1990.6 secs   av.it.:  12.3
      thresh= 8.846E-07 alpha_mix =  0.300 |ddv_scf|^2 =  6.285E-12

      iter #   7 total cpu time :  2022.5 secs   av.it.:  11.8
      thresh= 2.507E-07 alpha_mix =  0.300 |ddv_scf|^2 =  1.424E-12

      iter #   8 total cpu time :  2057.9 secs   av.it.:  12.4
      thresh= 1.193E-07 alpha_mix =  0.300 |ddv_scf|^2 =  1.544E-13

      iter #   9 total cpu time :  2092.3 secs   av.it.:  11.4
      thresh= 3.929E-08 alpha_mix =  0.300 |ddv_scf|^2 =  6.069E-14

      iter #  10 total cpu time :  2128.4 secs   av.it.:  11.9
      thresh= 2.464E-08 alpha_mix =  0.300 |ddv_scf|^2 =  7.922E-15

     End of self-consistent calculation

     Convergence has been achieved 


     Representation #   7 mode #   7

     Self-consistent Calculation

      iter #   1 total cpu time :  2174.6 secs   av.it.:   5.2
      thresh= 1.000E-02 alpha_mix =  0.300 |ddv_scf|^2 =  9.917E-07

      iter #   2 total cpu time :  2202.3 secs   av.it.:  11.2
      thresh= 9.958E-05 alpha_mix =  0.300 |ddv_scf|^2 =  5.743E-07

      iter #   3 total cpu time :  2230.4 secs   av.it.:  10.4
      thresh= 7.578E-05 alpha_mix =  0.300 |ddv_scf|^2 =  4.927E-09

      iter #   4 total cpu time :  2258.8 secs   av.it.:  11.7
      thresh= 7.019E-06 alpha_mix =  0.300 |ddv_scf|^2 =  6.842E-10

      iter #   5 total cpu time :  2289.8 secs   av.it.:  11.8
      thresh= 2.616E-06 alpha_mix =  0.300 |ddv_scf|^2 =  1.164E-10

      iter #   6 total cpu time :  2322.0 secs   av.it.:  12.5
      thresh= 1.079E-06 alpha_mix =  0.300 |ddv_scf|^2 =  8.393E-12

      iter #   7 total cpu time :  2352.0 secs   av.it.:  11.7
      thresh= 2.897E-07 alpha_mix =  0.300 |ddv_scf|^2 =  2.239E-12

      iter #   8 total cpu time :  2381.4 secs   av.it.:  12.4
      thresh= 1.496E-07 alpha_mix =  0.300 |ddv_scf|^2 =  1.829E-13

      iter #   9 total cpu time :  2412.4 secs   av.it.:  12.1
      thresh= 4.276E-08 alpha_mix =  0.300 |ddv_scf|^2 =  6.054E-14

      iter #  10 total cpu time :  2444.8 secs   av.it.:  11.3
      thresh= 2.460E-08 alpha_mix =  0.300 |ddv_scf|^2 =  1.043E-14

      iter #  11 total cpu time :  2479.9 secs   av.it.:  11.9
      thresh= 1.021E-08 alpha_mix =  0.300 |ddv_scf|^2 =  1.581E-15

     End of self-consistent calculation

     Convergence has been achieved 


     Representation #   8 mode #   8

     Self-consistent Calculation

      iter #   1 total cpu time :  2522.3 secs   av.it.:   5.0
      thresh= 1.000E-02 alpha_mix =  0.300 |ddv_scf|^2 =  7.148E-07

      iter #   2 total cpu time :  2551.8 secs   av.it.:  11.3
      thresh= 8.454E-05 alpha_mix =  0.300 |ddv_scf|^2 =  3.191E-07

      iter #   3 total cpu time :  2586.3 secs   av.it.:  10.6
      thresh= 5.649E-05 alpha_mix =  0.300 |ddv_scf|^2 =  5.910E-09

      iter #   4 total cpu time :  2616.1 secs   av.it.:  11.2
      thresh= 7.688E-06 alpha_mix =  0.300 |ddv_scf|^2 =  7.379E-10

      iter #   5 total cpu time :  2651.6 secs   av.it.:  12.4
      thresh= 2.716E-06 alpha_mix =  0.300 |ddv_scf|^2 =  4.748E-11

      iter #   6 total cpu time :  2679.7 secs   av.it.:  12.2
      thresh= 6.891E-07 alpha_mix =  0.300 |ddv_scf|^2 =  5.627E-12

      iter #   7 total cpu time :  2713.2 secs   av.it.:  12.1
      thresh= 2.372E-07 alpha_mix =  0.300 |ddv_scf|^2 =  8.601E-13

      iter #   8 total cpu time :  2748.5 secs   av.it.:  12.1
      thresh= 9.274E-08 alpha_mix =  0.300 |ddv_scf|^2 =  1.582E-13

      iter #   9 total cpu time :  2778.4 secs   av.it.:  11.5
      thresh= 3.978E-08 alpha_mix =  0.300 |ddv_scf|^2 =  4.955E-14

      iter #  10 total cpu time :  2807.7 secs   av.it.:  12.1
      thresh= 2.226E-08 alpha_mix =  0.300 |ddv_scf|^2 =  5.576E-15

     End of self-consistent calculation

     Convergence has been achieved 


     Representation #   9 mode #   9

     Self-consistent Calculation

      iter #   1 total cpu time :  2856.4 secs   av.it.:   4.9
      thresh= 1.000E-02 alpha_mix =  0.300 |ddv_scf|^2 =  6.156E-07

      iter #   2 total cpu time :  2881.6 secs   av.it.:  11.3
      thresh= 7.846E-05 alpha_mix =  0.300 |ddv_scf|^2 =  3.363E-07

      iter #   3 total cpu time :  2910.6 secs   av.it.:  10.5
      thresh= 5.799E-05 alpha_mix =  0.300 |ddv_scf|^2 =  3.892E-09

      iter #   4 total cpu time :  2940.0 secs   av.it.:  11.5
      thresh= 6.239E-06 alpha_mix =  0.300 |ddv_scf|^2 =  6.577E-10

      iter #   5 total cpu time :  2971.3 secs   av.it.:  11.9
      thresh= 2.565E-06 alpha_mix =  0.300 |ddv_scf|^2 =  9.900E-11

      iter #   6 total cpu time :  3002.5 secs   av.it.:  12.5
      thresh= 9.950E-07 alpha_mix =  0.300 |ddv_scf|^2 =  6.888E-12

      iter #   7 total cpu time :  3031.6 secs   av.it.:  11.7
      thresh= 2.624E-07 alpha_mix =  0.300 |ddv_scf|^2 =  1.889E-12

      iter #   8 total cpu time :  3064.0 secs   av.it.:  12.5
      thresh= 1.375E-07 alpha_mix =  0.300 |ddv_scf|^2 =  1.387E-13

      iter #   9 total cpu time :  3095.7 secs   av.it.:  11.9
      thresh= 3.724E-08 alpha_mix =  0.300 |ddv_scf|^2 =  6.076E-14

      iter #  10 total cpu time :  3127.8 secs   av.it.:  11.5
      thresh= 2.465E-08 alpha_mix =  0.300 |ddv_scf|^2 =  9.194E-15

     End of self-consistent calculation

     Convergence has been achieved 


     Representation #  10 mode #  10

     Self-consistent Calculation

      iter #   1 total cpu time :  3175.2 secs   av.it.:   5.2
      thresh= 1.000E-02 alpha_mix =  0.300 |ddv_scf|^2 =  9.048E-07

      iter #   2 total cpu time :  3203.5 secs   av.it.:  11.3
      thresh= 9.512E-05 alpha_mix =  0.300 |ddv_scf|^2 =  5.564E-07

      iter #   3 total cpu time :  3233.4 secs   av.it.:  10.4
      thresh= 7.459E-05 alpha_mix =  0.300 |ddv_scf|^2 =  3.915E-09

      iter #   4 total cpu time :  3261.7 secs   av.it.:  12.0
      thresh= 6.257E-06 alpha_mix =  0.300 |ddv_scf|^2 =  3.619E-10

      iter #   5 total cpu time :  3294.0 secs   av.it.:  12.2
      thresh= 1.902E-06 alpha_mix =  0.300 |ddv_scf|^2 =  6.851E-11

      iter #   6 total cpu time :  3325.1 secs   av.it.:  12.3
      thresh= 8.277E-07 alpha_mix =  0.300 |ddv_scf|^2 =  9.643E-12

      iter #   7 total cpu time :  3358.1 secs   av.it.:  11.9
      thresh= 3.105E-07 alpha_mix =  0.300 |ddv_scf|^2 =  2.343E-12

      iter #   8 total cpu time :  3391.7 secs   av.it.:  12.7
      thresh= 1.531E-07 alpha_mix =  0.300 |ddv_scf|^2 =  1.623E-13

      iter #   9 total cpu time :  3424.4 secs   av.it.:  12.0
      thresh= 4.029E-08 alpha_mix =  0.300 |ddv_scf|^2 =  7.503E-14

      iter #  10 total cpu time :  3457.8 secs   av.it.:  11.5
      thresh= 2.739E-08 alpha_mix =  0.300 |ddv_scf|^2 =  2.022E-14

      iter #  11 total cpu time :  3491.1 secs   av.it.:  12.3
      thresh= 1.422E-08 alpha_mix =  0.300 |ddv_scf|^2 =  1.329E-15

     End of self-consistent calculation

     Convergence has been achieved 


     Representation #  11 mode #  11

     Self-consistent Calculation

      iter #   1 total cpu time :  3540.3 secs   av.it.:   4.9
      thresh= 1.000E-02 alpha_mix =  0.300 |ddv_scf|^2 =  6.070E-07

      iter #   2 total cpu time :  3567.4 secs   av.it.:  11.3
      thresh= 7.791E-05 alpha_mix =  0.300 |ddv_scf|^2 =  3.838E-07

      iter #   3 total cpu time :  3596.2 secs   av.it.:  10.4
      thresh= 6.195E-05 alpha_mix =  0.300 |ddv_scf|^2 =  2.590E-09

      iter #   4 total cpu time :  3626.8 secs   av.it.:  12.0
      thresh= 5.089E-06 alpha_mix =  0.300 |ddv_scf|^2 =  3.983E-10

      iter #   5 total cpu time :  3658.3 secs   av.it.:  11.9
      thresh= 1.996E-06 alpha_mix =  0.300 |ddv_scf|^2 =  7.741E-11

      iter #   6 total cpu time :  3690.8 secs   av.it.:  12.4
      thresh= 8.798E-07 alpha_mix =  0.300 |ddv_scf|^2 =  7.034E-12

      iter #   7 total cpu time :  3725.0 secs   av.it.:  11.8
      thresh= 2.652E-07 alpha_mix =  0.300 |ddv_scf|^2 =  1.711E-12

      iter #   8 total cpu time :  3757.0 secs   av.it.:  12.5
      thresh= 1.308E-07 alpha_mix =  0.300 |ddv_scf|^2 =  1.099E-13

      iter #   9 total cpu time :  3790.4 secs   av.it.:  11.9
      thresh= 3.315E-08 alpha_mix =  0.300 |ddv_scf|^2 =  4.067E-14

      iter #  10 total cpu time :  3827.2 secs   av.it.:  11.7
      thresh= 2.017E-08 alpha_mix =  0.300 |ddv_scf|^2 =  7.877E-15

     End of self-consistent calculation

     Convergence has been achieved 


     Representation #  12 mode #  12

     Self-consistent Calculation

      iter #   1 total cpu time :  3871.8 secs   av.it.:   4.9
      thresh= 1.000E-02 alpha_mix =  0.300 |ddv_scf|^2 =  4.975E-07

      iter #   2 total cpu time :  3902.6 secs   av.it.:  11.3
      thresh= 7.053E-05 alpha_mix =  0.300 |ddv_scf|^2 =  2.468E-07

      iter #   3 total cpu time :  3931.0 secs   av.it.:  10.5
      thresh= 4.968E-05 alpha_mix =  0.300 |ddv_scf|^2 =  4.467E-09

      iter #   4 total cpu time :  3958.6 secs   av.it.:  11.3
      thresh= 6.684E-06 alpha_mix =  0.300 |ddv_scf|^2 =  6.884E-10

      iter #   5 total cpu time :  3990.1 secs   av.it.:  11.9
      thresh= 2.624E-06 alpha_mix =  0.300 |ddv_scf|^2 =  9.762E-11

      iter #   6 total cpu time :  4019.0 secs   av.it.:  12.4
      thresh= 9.880E-07 alpha_mix =  0.300 |ddv_scf|^2 =  7.288E-12

      iter #   7 total cpu time :  4052.4 secs   av.it.:  11.8
      thresh= 2.700E-07 alpha_mix =  0.300 |ddv_scf|^2 =  1.931E-12

      iter #   8 total cpu time :  4087.0 secs   av.it.:  12.5
      thresh= 1.390E-07 alpha_mix =  0.300 |ddv_scf|^2 =  1.393E-13

      iter #   9 total cpu time :  4115.4 secs   av.it.:  11.9
      thresh= 3.732E-08 alpha_mix =  0.300 |ddv_scf|^2 =  5.644E-14

      iter #  10 total cpu time :  4148.5 secs   av.it.:  11.5
      thresh= 2.376E-08 alpha_mix =  0.300 |ddv_scf|^2 =  9.387E-15

     End of self-consistent calculation

     Convergence has been achieved 


     Representation #  13 mode #  13

     Self-consistent Calculation

      iter #   1 total cpu time :  4198.5 secs   av.it.:   5.0
      thresh= 1.000E-02 alpha_mix =  0.300 |ddv_scf|^2 =  8.152E-07

      iter #   2 total cpu time :  4228.1 secs   av.it.:  11.3
      thresh= 9.029E-05 alpha_mix =  0.300 |ddv_scf|^2 =  4.201E-07

      iter #   3 total cpu time :  4259.4 secs   av.it.:  10.5
      thresh= 6.482E-05 alpha_mix =  0.300 |ddv_scf|^2 =  5.054E-09

      iter #   4 total cpu time :  4288.6 secs   av.it.:  11.3
      thresh= 7.109E-06 alpha_mix =  0.300 |ddv_scf|^2 =  7.687E-10

      iter #   5 total cpu time :  4323.5 secs   av.it.:  12.3
      thresh= 2.772E-06 alpha_mix =  0.300 |ddv_scf|^2 =  6.612E-11

      iter #   6 total cpu time :  4355.5 secs   av.it.:  12.4
      thresh= 8.131E-07 alpha_mix =  0.300 |ddv_scf|^2 =  5.452E-12

      iter #   7 total cpu time :  4390.6 secs   av.it.:  11.9
      thresh= 2.335E-07 alpha_mix =  0.300 |ddv_scf|^2 =  1.288E-12

      iter #   8 total cpu time :  4422.4 secs   av.it.:  12.5
      thresh= 1.135E-07 alpha_mix =  0.300 |ddv_scf|^2 =  1.324E-13

      iter #   9 total cpu time :  4457.4 secs   av.it.:  11.3
      thresh= 3.639E-08 alpha_mix =  0.300 |ddv_scf|^2 =  4.916E-14

      iter #  10 total cpu time :  4490.8 secs   av.it.:  12.2
      thresh= 2.217E-08 alpha_mix =  0.300 |ddv_scf|^2 =  5.634E-15

     End of self-consistent calculation

     Convergence has been achieved 


     Representation #  14 mode #  14

     Self-consistent Calculation

      iter #   1 total cpu time :  4536.9 secs   av.it.:   5.0
      thresh= 1.000E-02 alpha_mix =  0.300 |ddv_scf|^2 =  1.110E-06

      iter #   2 total cpu time :  4566.5 secs   av.it.:  11.2
      thresh= 1.054E-04 alpha_mix =  0.300 |ddv_scf|^2 =  5.722E-07

      iter #   3 total cpu time :  4597.4 secs   av.it.:  10.4
      thresh= 7.564E-05 alpha_mix =  0.300 |ddv_scf|^2 =  5.608E-09

      iter #   4 total cpu time :  4628.6 secs   av.it.:  11.2
      thresh= 7.489E-06 alpha_mix =  0.300 |ddv_scf|^2 =  7.366E-10

      iter #   5 total cpu time :  4659.1 secs   av.it.:  12.2
      thresh= 2.714E-06 alpha_mix =  0.300 |ddv_scf|^2 =  6.516E-11

      iter #   6 total cpu time :  4691.6 secs   av.it.:  12.3
      thresh= 8.072E-07 alpha_mix =  0.300 |ddv_scf|^2 =  5.578E-12

      iter #   7 total cpu time :  4723.9 secs   av.it.:  11.8
      thresh= 2.362E-07 alpha_mix =  0.300 |ddv_scf|^2 =  1.373E-12

      iter #   8 total cpu time :  4757.9 secs   av.it.:  12.4
      thresh= 1.172E-07 alpha_mix =  0.300 |ddv_scf|^2 =  1.189E-13

      iter #   9 total cpu time :  4792.1 secs   av.it.:  11.5
      thresh= 3.448E-08 alpha_mix =  0.300 |ddv_scf|^2 =  4.278E-14

      iter #  10 total cpu time :  4827.9 secs   av.it.:  12.0
      thresh= 2.068E-08 alpha_mix =  0.300 |ddv_scf|^2 =  5.729E-15

     End of self-consistent calculation

     Convergence has been achieved 


     Representation #  15 mode #  15

     Self-consistent Calculation

      iter #   1 total cpu time :  4873.2 secs   av.it.:   5.0
      thresh= 1.000E-02 alpha_mix =  0.300 |ddv_scf|^2 =  7.353E-07

      iter #   2 total cpu time :  4899.7 secs   av.it.:  11.3
      thresh= 8.575E-05 alpha_mix =  0.300 |ddv_scf|^2 =  3.541E-07

      iter #   3 total cpu time :  4929.9 secs   av.it.:  10.5
      thresh= 5.950E-05 alpha_mix =  0.300 |ddv_scf|^2 =  5.159E-09

      iter #   4 total cpu time :  4959.2 secs   av.it.:  11.3
      thresh= 7.182E-06 alpha_mix =  0.300 |ddv_scf|^2 =  7.245E-10

      iter #   5 total cpu time :  4990.0 secs   av.it.:  12.3
      thresh= 2.692E-06 alpha_mix =  0.300 |ddv_scf|^2 =  6.243E-11

      iter #   6 total cpu time :  5019.1 secs   av.it.:  12.3
      thresh= 7.901E-07 alpha_mix =  0.300 |ddv_scf|^2 =  5.834E-12

      iter #   7 total cpu time :  5051.4 secs   av.it.:  11.9
      thresh= 2.415E-07 alpha_mix =  0.300 |ddv_scf|^2 =  1.282E-12

      iter #   8 total cpu time :  5084.1 secs   av.it.:  12.3
      thresh= 1.132E-07 alpha_mix =  0.300 |ddv_scf|^2 =  1.567E-13

      iter #   9 total cpu time :  5115.8 secs   av.it.:  11.5
      thresh= 3.959E-08 alpha_mix =  0.300 |ddv_scf|^2 =  5.454E-14

      iter #  10 total cpu time :  5147.0 secs   av.it.:  12.1
      thresh= 2.335E-08 alpha_mix =  0.300 |ddv_scf|^2 =  5.613E-15

     End of self-consistent calculation

     Convergence has been achieved 


     Representation #  16 mode #  16

     Self-consistent Calculation

      iter #   1 total cpu time :  5193.4 secs   av.it.:   5.2
      thresh= 1.000E-02 alpha_mix =  0.300 |ddv_scf|^2 =  8.030E-07

      iter #   2 total cpu time :  5222.2 secs   av.it.:  11.3
      thresh= 8.961E-05 alpha_mix =  0.300 |ddv_scf|^2 =  4.728E-07

      iter #   3 total cpu time :  5252.1 secs   av.it.:  10.5
      thresh= 6.876E-05 alpha_mix =  0.300 |ddv_scf|^2 =  5.528E-09

      iter #   4 total cpu time :  5281.1 secs   av.it.:  11.9
      thresh= 7.435E-06 alpha_mix =  0.300 |ddv_scf|^2 =  7.586E-10

      iter #   5 total cpu time :  5310.2 secs   av.it.:  11.9
      thresh= 2.754E-06 alpha_mix =  0.300 |ddv_scf|^2 =  1.106E-10

      iter #   6 total cpu time :  5340.8 secs   av.it.:  12.5
      thresh= 1.052E-06 alpha_mix =  0.300 |ddv_scf|^2 =  9.007E-12

      iter #   7 total cpu time :  5372.3 secs   av.it.:  12.0
      thresh= 3.001E-07 alpha_mix =  0.300 |ddv_scf|^2 =  2.160E-12

      iter #   8 total cpu time :  5404.8 secs   av.it.:  12.5
      thresh= 1.470E-07 alpha_mix =  0.300 |ddv_scf|^2 =  1.610E-13

      iter #   9 total cpu time :  5441.5 secs   av.it.:  11.9
      thresh= 4.012E-08 alpha_mix =  0.300 |ddv_scf|^2 =  6.074E-14

      iter #  10 total cpu time :  5475.7 secs   av.it.:  11.9
      thresh= 2.465E-08 alpha_mix =  0.300 |ddv_scf|^2 =  1.052E-14

      iter #  11 total cpu time :  5512.7 secs   av.it.:  11.9
      thresh= 1.025E-08 alpha_mix =  0.300 |ddv_scf|^2 =  1.292E-15

     End of self-consistent calculation

     Convergence has been achieved 


     Representation #  17 mode #  17

     Self-consistent Calculation

      iter #   1 total cpu time :  5558.3 secs   av.it.:   5.0
      thresh= 1.000E-02 alpha_mix =  0.300 |ddv_scf|^2 =  2.173E-07

      iter #   2 total cpu time :  5588.5 secs   av.it.:  11.5
      thresh= 4.661E-05 alpha_mix =  0.300 |ddv_scf|^2 =  4.422E-08

      iter #   3 total cpu time :  5619.2 secs   av.it.:  11.2
      thresh= 2.103E-05 alpha_mix =  0.300 |ddv_scf|^2 =  6.878E-09

      iter #   4 total cpu time :  5653.7 secs   av.it.:  11.3
      thresh= 8.293E-06 alpha_mix =  0.300 |ddv_scf|^2 =  1.082E-09

      iter #   5 total cpu time :  5692.1 secs   av.it.:  11.6
      thresh= 3.289E-06 alpha_mix =  0.300 |ddv_scf|^2 =  1.139E-10

      iter #   6 total cpu time :  5722.0 secs   av.it.:  12.5
      thresh= 1.067E-06 alpha_mix =  0.300 |ddv_scf|^2 =  7.055E-12

      iter #   7 total cpu time :  5750.9 secs   av.it.:  11.5
      thresh= 2.656E-07 alpha_mix =  0.300 |ddv_scf|^2 =  2.239E-12

      iter #   8 total cpu time :  5781.9 secs   av.it.:  12.5
      thresh= 1.496E-07 alpha_mix =  0.300 |ddv_scf|^2 =  1.202E-13

      iter #   9 total cpu time :  5816.6 secs   av.it.:  12.0
      thresh= 3.467E-08 alpha_mix =  0.300 |ddv_scf|^2 =  3.412E-14

      iter #  10 total cpu time :  5847.3 secs   av.it.:  12.1
      thresh= 1.847E-08 alpha_mix =  0.300 |ddv_scf|^2 =  5.352E-15

     End of self-consistent calculation

     Convergence has been achieved 


     Representation #  18 mode #  18

     Self-consistent Calculation

      iter #   1 total cpu time :  5889.3 secs   av.it.:   5.2
      thresh= 1.000E-02 alpha_mix =  0.300 |ddv_scf|^2 =  1.080E-06

      iter #   2 total cpu time :  5914.7 secs   av.it.:  11.4
      thresh= 1.039E-04 alpha_mix =  0.300 |ddv_scf|^2 =  4.410E-07

      iter #   3 total cpu time :  5943.4 secs   av.it.:  10.7
      thresh= 6.641E-05 alpha_mix =  0.300 |ddv_scf|^2 =  1.027E-08

      iter #   4 total cpu time :  5975.8 secs   av.it.:  11.1
      thresh= 1.013E-05 alpha_mix =  0.300 |ddv_scf|^2 =  8.885E-10

      iter #   5 total cpu time :  6012.6 secs   av.it.:  12.3
      thresh= 2.981E-06 alpha_mix =  0.300 |ddv_scf|^2 =  7.449E-11

      iter #   6 total cpu time :  6044.6 secs   av.it.:  12.4
      thresh= 8.631E-07 alpha_mix =  0.300 |ddv_scf|^2 =  8.516E-12

      iter #   7 total cpu time :  6080.0 secs   av.it.:  12.0
      thresh= 2.918E-07 alpha_mix =  0.300 |ddv_scf|^2 =  1.686E-12

      iter #   8 total cpu time :  6114.1 secs   av.it.:  12.6
      thresh= 1.298E-07 alpha_mix =  0.300 |ddv_scf|^2 =  1.466E-13

      iter #   9 total cpu time :  6145.7 secs   av.it.:  11.6
      thresh= 3.829E-08 alpha_mix =  0.300 |ddv_scf|^2 =  6.006E-14

      iter #  10 total cpu time :  6179.5 secs   av.it.:  12.1
      thresh= 2.451E-08 alpha_mix =  0.300 |ddv_scf|^2 =  5.965E-15

     End of self-consistent calculation

     Convergence has been achieved 


     Representation #  19 mode #  19

     Self-consistent Calculation

      iter #   1 total cpu time :  6227.6 secs   av.it.:   7.3
      thresh= 1.000E-02 alpha_mix =  0.300 |ddv_scf|^2 =  8.489E-06

      iter #   2 total cpu time :  6255.6 secs   av.it.:  11.3
      thresh= 2.914E-04 alpha_mix =  0.300 |ddv_scf|^2 =  2.230E-06

      iter #   3 total cpu time :  6285.9 secs   av.it.:  10.9
      thresh= 1.493E-04 alpha_mix =  0.300 |ddv_scf|^2 =  2.187E-07

      iter #   4 total cpu time :  6319.3 secs   av.it.:  11.1
      thresh= 4.676E-05 alpha_mix =  0.300 |ddv_scf|^2 =  3.598E-08

      iter #   5 total cpu time :  6350.8 secs   av.it.:  11.6
      thresh= 1.897E-05 alpha_mix =  0.300 |ddv_scf|^2 =  8.644E-09

      iter #   6 total cpu time :  6384.1 secs   av.it.:  12.5
      thresh= 9.297E-06 alpha_mix =  0.300 |ddv_scf|^2 =  5.286E-10

      iter #   7 total cpu time :  6413.0 secs   av.it.:  11.7
      thresh= 2.299E-06 alpha_mix =  0.300 |ddv_scf|^2 =  9.041E-11

      iter #   8 total cpu time :  6445.3 secs   av.it.:  12.1
      thresh= 9.508E-07 alpha_mix =  0.300 |ddv_scf|^2 =  4.930E-12

      iter #   9 total cpu time :  6478.0 secs   av.it.:  11.9
      thresh= 2.220E-07 alpha_mix =  0.300 |ddv_scf|^2 =  8.474E-13

      iter #  10 total cpu time :  6514.1 secs   av.it.:  12.0
      thresh= 9.205E-08 alpha_mix =  0.300 |ddv_scf|^2 =  1.723E-13

      iter #  11 total cpu time :  6551.1 secs   av.it.:  11.7
      thresh= 4.151E-08 alpha_mix =  0.300 |ddv_scf|^2 =  3.308E-14

      iter #  12 total cpu time :  6580.5 secs   av.it.:  11.6
      thresh= 1.819E-08 alpha_mix =  0.300 |ddv_scf|^2 =  6.676E-15

     End of self-consistent calculation

     Convergence has been achieved 


     Representation #  20 mode #  20

     Self-consistent Calculation

      iter #   1 total cpu time :  6630.0 secs   av.it.:   4.9
      thresh= 1.000E-02 alpha_mix =  0.300 |ddv_scf|^2 =  2.789E-07

      iter #   2 total cpu time :  6656.4 secs   av.it.:  11.3
      thresh= 5.281E-05 alpha_mix =  0.300 |ddv_scf|^2 =  8.698E-08

      iter #   3 total cpu time :  6682.9 secs   av.it.:  10.7
      thresh= 2.949E-05 alpha_mix =  0.300 |ddv_scf|^2 =  4.928E-09

      iter #   4 total cpu time :  6713.6 secs   av.it.:  11.4
      thresh= 7.020E-06 alpha_mix =  0.300 |ddv_scf|^2 =  8.817E-10

      iter #   5 total cpu time :  6746.5 secs   av.it.:  12.0
      thresh= 2.969E-06 alpha_mix =  0.300 |ddv_scf|^2 =  8.362E-11

      iter #   6 total cpu time :  6778.3 secs   av.it.:  12.5
      thresh= 9.144E-07 alpha_mix =  0.300 |ddv_scf|^2 =  6.687E-12

      iter #   7 total cpu time :  6813.2 secs   av.it.:  11.9
      thresh= 2.586E-07 alpha_mix =  0.300 |ddv_scf|^2 =  1.714E-12

      iter #   8 total cpu time :  6843.3 secs   av.it.:  12.6
      thresh= 1.309E-07 alpha_mix =  0.300 |ddv_scf|^2 =  9.989E-14

      iter #   9 total cpu time :  6874.7 secs   av.it.:  12.1
      thresh= 3.161E-08 alpha_mix =  0.300 |ddv_scf|^2 =  2.079E-14

      iter #  10 total cpu time :  6908.0 secs   av.it.:  11.9
      thresh= 1.442E-08 alpha_mix =  0.300 |ddv_scf|^2 =  5.162E-15

     End of self-consistent calculation

     Convergence has been achieved 


     Representation #  21 mode #  21

     Self-consistent Calculation

      iter #   1 total cpu time :  6953.9 secs   av.it.:   4.5
      thresh= 1.000E-02 alpha_mix =  0.300 |ddv_scf|^2 =  1.332E-08

      iter #   2 total cpu time :  6984.9 secs   av.it.:  11.6
      thresh= 1.154E-05 alpha_mix =  0.300 |ddv_scf|^2 =  3.181E-09

      iter #   3 total cpu time :  7018.2 secs   av.it.:  12.3
      thresh= 5.640E-06 alpha_mix =  0.300 |ddv_scf|^2 =  2.083E-10

      iter #   4 total cpu time :  7049.3 secs   av.it.:  12.4
      thresh= 1.443E-06 alpha_mix =  0.300 |ddv_scf|^2 =  1.178E-11

      iter #   5 total cpu time :  7081.8 secs   av.it.:  12.5
      thresh= 3.433E-07 alpha_mix =  0.300 |ddv_scf|^2 =  9.278E-13

      iter #   6 total cpu time :  7117.5 secs   av.it.:  12.7
      thresh= 9.632E-08 alpha_mix =  0.300 |ddv_scf|^2 =  1.482E-13

      iter #   7 total cpu time :  7153.9 secs   av.it.:  12.3
      thresh= 3.850E-08 alpha_mix =  0.300 |ddv_scf|^2 =  5.726E-15

     End of self-consistent calculation

     Convergence has been achieved 


     Representation #  22 mode #  22

     Self-consistent Calculation

      iter #   1 total cpu time :  7201.8 secs   av.it.:   4.5
      thresh= 1.000E-02 alpha_mix =  0.300 |ddv_scf|^2 =  9.625E-09

      iter #   2 total cpu time :  7233.4 secs   av.it.:  11.7
      thresh= 9.811E-06 alpha_mix =  0.300 |ddv_scf|^2 =  2.835E-09

      iter #   3 total cpu time :  7263.6 secs   av.it.:  12.4
      thresh= 5.324E-06 alpha_mix =  0.300 |ddv_scf|^2 =  1.410E-10

      iter #   4 total cpu time :  7299.0 secs   av.it.:  12.4
      thresh= 1.188E-06 alpha_mix =  0.300 |ddv_scf|^2 =  9.299E-12

      iter #   5 total cpu time :  7329.3 secs   av.it.:  12.5
      thresh= 3.049E-07 alpha_mix =  0.300 |ddv_scf|^2 =  8.322E-13

      iter #   6 total cpu time :  7360.3 secs   av.it.:  12.9
      thresh= 9.122E-08 alpha_mix =  0.300 |ddv_scf|^2 =  1.085E-13

      iter #   7 total cpu time :  7392.5 secs   av.it.:  12.5
      thresh= 3.293E-08 alpha_mix =  0.300 |ddv_scf|^2 =  5.770E-15

     End of self-consistent calculation

     Convergence has been achieved 


     Representation #  23 mode #  23

     Self-consistent Calculation

      iter #   1 total cpu time :  7436.0 secs   av.it.:   4.4
      thresh= 1.000E-02 alpha_mix =  0.300 |ddv_scf|^2 =  1.136E-08

      iter #   2 total cpu time :  7461.6 secs   av.it.:  11.7
      thresh= 1.066E-05 alpha_mix =  0.300 |ddv_scf|^2 =  2.535E-09

      iter #   3 total cpu time :  7489.8 secs   av.it.:  12.2
      thresh= 5.035E-06 alpha_mix =  0.300 |ddv_scf|^2 =  1.761E-10

      iter #   4 total cpu time :  7518.2 secs   av.it.:  12.3
      thresh= 1.327E-06 alpha_mix =  0.300 |ddv_scf|^2 =  1.227E-11

      iter #   5 total cpu time :  7546.2 secs   av.it.:  12.4
      thresh= 3.503E-07 alpha_mix =  0.300 |ddv_scf|^2 =  7.904E-13

      iter #   6 total cpu time :  7576.7 secs   av.it.:  12.5
      thresh= 8.890E-08 alpha_mix =  0.300 |ddv_scf|^2 =  1.248E-13

      iter #   7 total cpu time :  7611.2 secs   av.it.:  12.4
      thresh= 3.533E-08 alpha_mix =  0.300 |ddv_scf|^2 =  4.545E-15

     End of self-consistent calculation

     Convergence has been achieved 


     Representation #  24 mode #  24

     Self-consistent Calculation

      iter #   1 total cpu time :  7655.9 secs   av.it.:   4.7
      thresh= 1.000E-02 alpha_mix =  0.300 |ddv_scf|^2 =  4.356E-08

      iter #   2 total cpu time :  7682.2 secs   av.it.:  11.5
      thresh= 2.087E-05 alpha_mix =  0.300 |ddv_scf|^2 =  6.308E-09

      iter #   3 total cpu time :  7712.3 secs   av.it.:  12.1
      thresh= 7.942E-06 alpha_mix =  0.300 |ddv_scf|^2 =  3.017E-10

      iter #   4 total cpu time :  7743.8 secs   av.it.:  12.5
      thresh= 1.737E-06 alpha_mix =  0.300 |ddv_scf|^2 =  1.570E-11

      iter #   5 total cpu time :  7777.1 secs   av.it.:  12.5
      thresh= 3.962E-07 alpha_mix =  0.300 |ddv_scf|^2 =  8.499E-13

      iter #   6 total cpu time :  7808.7 secs   av.it.:  12.1
      thresh= 9.219E-08 alpha_mix =  0.300 |ddv_scf|^2 =  1.937E-13

      iter #   7 total cpu time :  7846.4 secs   av.it.:  12.6
      thresh= 4.401E-08 alpha_mix =  0.300 |ddv_scf|^2 =  5.428E-15

     End of self-consistent calculation

     Convergence has been achieved 


     Representation #  25 mode #  25

     Self-consistent Calculation

      iter #   1 total cpu time :  7889.1 secs   av.it.:   4.7
      thresh= 1.000E-02 alpha_mix =  0.300 |ddv_scf|^2 =  3.901E-08

      iter #   2 total cpu time :  7915.9 secs   av.it.:  11.5
      thresh= 1.975E-05 alpha_mix =  0.300 |ddv_scf|^2 =  5.866E-09

      iter #   3 total cpu time :  7946.3 secs   av.it.:  12.2
      thresh= 7.659E-06 alpha_mix =  0.300 |ddv_scf|^2 =  2.814E-10

      iter #   4 total cpu time :  7975.9 secs   av.it.:  12.4
      thresh= 1.678E-06 alpha_mix =  0.300 |ddv_scf|^2 =  1.614E-11

      iter #   5 total cpu time :  8010.2 secs   av.it.:  12.4
      thresh= 4.018E-07 alpha_mix =  0.300 |ddv_scf|^2 =  1.037E-12

      iter #   6 total cpu time :  8040.8 secs   av.it.:  12.3
      thresh= 1.018E-07 alpha_mix =  0.300 |ddv_scf|^2 =  1.608E-13

      iter #   7 total cpu time :  8071.6 secs   av.it.:  12.5
      thresh= 4.010E-08 alpha_mix =  0.300 |ddv_scf|^2 =  6.567E-15

     End of self-consistent calculation

     Convergence has been achieved 


     Representation #  26 mode #  26

     Self-consistent Calculation

      iter #   1 total cpu time :  8114.8 secs   av.it.:   4.7
      thresh= 1.000E-02 alpha_mix =  0.300 |ddv_scf|^2 =  3.901E-08

      iter #   2 total cpu time :  8141.3 secs   av.it.:  11.5
      thresh= 1.975E-05 alpha_mix =  0.300 |ddv_scf|^2 =  5.866E-09

      iter #   3 total cpu time :  8171.9 secs   av.it.:  12.2
      thresh= 7.659E-06 alpha_mix =  0.300 |ddv_scf|^2 =  2.814E-10

      iter #   4 total cpu time :  8203.1 secs   av.it.:  12.4
      thresh= 1.678E-06 alpha_mix =  0.300 |ddv_scf|^2 =  1.614E-11

      iter #   5 total cpu time :  8234.8 secs   av.it.:  12.4
      thresh= 4.018E-07 alpha_mix =  0.300 |ddv_scf|^2 =  1.037E-12

      iter #   6 total cpu time :  8270.0 secs   av.it.:  12.3
      thresh= 1.018E-07 alpha_mix =  0.300 |ddv_scf|^2 =  1.608E-13

      iter #   7 total cpu time :  8305.8 secs   av.it.:  12.5
      thresh= 4.010E-08 alpha_mix =  0.300 |ddv_scf|^2 =  6.567E-15

     End of self-consistent calculation

     Convergence has been achieved 


     Representation #  27 mode #  27

     Self-consistent Calculation

      iter #   1 total cpu time :  8354.1 secs   av.it.:   4.7
      thresh= 1.000E-02 alpha_mix =  0.300 |ddv_scf|^2 =  4.328E-08

      iter #   2 total cpu time :  8383.7 secs   av.it.:  11.5
      thresh= 2.080E-05 alpha_mix =  0.300 |ddv_scf|^2 =  6.374E-09

      iter #   3 total cpu time :  8418.9 secs   av.it.:  12.2
      thresh= 7.984E-06 alpha_mix =  0.300 |ddv_scf|^2 =  3.012E-10

      iter #   4 total cpu time :  8448.3 secs   av.it.:  12.5
      thresh= 1.735E-06 alpha_mix =  0.300 |ddv_scf|^2 =  1.638E-11

      iter #   5 total cpu time :  8481.6 secs   av.it.:  12.5
      thresh= 4.047E-07 alpha_mix =  0.300 |ddv_scf|^2 =  1.101E-12

      iter #   6 total cpu time :  8516.4 secs   av.it.:  12.4
      thresh= 1.049E-07 alpha_mix =  0.300 |ddv_scf|^2 =  1.661E-13

      iter #   7 total cpu time :  8549.2 secs   av.it.:  12.4
      thresh= 4.075E-08 alpha_mix =  0.300 |ddv_scf|^2 =  6.449E-15

     End of self-consistent calculation

     Convergence has been achieved 


     Representation #  28 mode #  28

     Self-consistent Calculation

      iter #   1 total cpu time :  8600.9 secs   av.it.:   4.2
      thresh= 1.000E-02 alpha_mix =  0.300 |ddv_scf|^2 =  6.709E-09

      iter #   2 total cpu time :  8629.2 secs   av.it.:  11.8
      thresh= 8.191E-06 alpha_mix =  0.300 |ddv_scf|^2 =  1.623E-09

      iter #   3 total cpu time :  8665.3 secs   av.it.:  12.2
      thresh= 4.029E-06 alpha_mix =  0.300 |ddv_scf|^2 =  1.562E-10

      iter #   4 total cpu time :  8697.4 secs   av.it.:  12.4
      thresh= 1.250E-06 alpha_mix =  0.300 |ddv_scf|^2 =  7.938E-12

      iter #   5 total cpu time :  8730.5 secs   av.it.:  12.3
      thresh= 2.817E-07 alpha_mix =  0.300 |ddv_scf|^2 =  6.578E-13

      iter #   6 total cpu time :  8763.8 secs   av.it.:  12.4
      thresh= 8.110E-08 alpha_mix =  0.300 |ddv_scf|^2 =  8.134E-14

      iter #   7 total cpu time :  8796.8 secs   av.it.:  12.5
      thresh= 2.852E-08 alpha_mix =  0.300 |ddv_scf|^2 =  4.018E-15

     End of self-consistent calculation

     Convergence has been achieved 


     Representation #  29 mode #  29

     Self-consistent Calculation

      iter #   1 total cpu time :  8846.6 secs   av.it.:   4.7
      thresh= 1.000E-02 alpha_mix =  0.300 |ddv_scf|^2 =  4.356E-08

      iter #   2 total cpu time :  8880.9 secs   av.it.:  11.5
      thresh= 2.087E-05 alpha_mix =  0.300 |ddv_scf|^2 =  6.308E-09

      iter #   3 total cpu time :  8911.6 secs   av.it.:  12.1
      thresh= 7.942E-06 alpha_mix =  0.300 |ddv_scf|^2 =  3.017E-10

      iter #   4 total cpu time :  8943.8 secs   av.it.:  12.5
      thresh= 1.737E-06 alpha_mix =  0.300 |ddv_scf|^2 =  1.570E-11

      iter #   5 total cpu time :  8975.4 secs   av.it.:  12.5
      thresh= 3.962E-07 alpha_mix =  0.300 |ddv_scf|^2 =  8.499E-13

      iter #   6 total cpu time :  9005.8 secs   av.it.:  12.1
      thresh= 9.219E-08 alpha_mix =  0.300 |ddv_scf|^2 =  1.937E-13

      iter #   7 total cpu time :  9038.0 secs   av.it.:  12.6
      thresh= 4.401E-08 alpha_mix =  0.300 |ddv_scf|^2 =  5.428E-15

     End of self-consistent calculation

     Convergence has been achieved 


     Representation #  30 mode #  30

     Self-consistent Calculation

      iter #   1 total cpu time :  9086.5 secs   av.it.:   4.7
      thresh= 1.000E-02 alpha_mix =  0.300 |ddv_scf|^2 =  4.328E-08

      iter #   2 total cpu time :  9117.1 secs   av.it.:  11.5
      thresh= 2.080E-05 alpha_mix =  0.300 |ddv_scf|^2 =  6.374E-09

      iter #   3 total cpu time :  9148.8 secs   av.it.:  12.2
      thresh= 7.984E-06 alpha_mix =  0.300 |ddv_scf|^2 =  3.012E-10

      iter #   4 total cpu time :  9176.2 secs   av.it.:  12.5
      thresh= 1.735E-06 alpha_mix =  0.300 |ddv_scf|^2 =  1.638E-11

      iter #   5 total cpu time :  9208.6 secs   av.it.:  12.5
      thresh= 4.047E-07 alpha_mix =  0.300 |ddv_scf|^2 =  1.101E-12

      iter #   6 total cpu time :  9244.2 secs   av.it.:  12.4
      thresh= 1.049E-07 alpha_mix =  0.300 |ddv_scf|^2 =  1.661E-13

      iter #   7 total cpu time :  9276.5 secs   av.it.:  12.4
      thresh= 4.075E-08 alpha_mix =  0.300 |ddv_scf|^2 =  6.449E-15

     End of self-consistent calculation

     Convergence has been achieved 


     Representation #  31 mode #  31

     Self-consistent Calculation

      iter #   1 total cpu time :  9321.4 secs   av.it.:   4.4
      thresh= 1.000E-02 alpha_mix =  0.300 |ddv_scf|^2 =  7.439E-09

      iter #   2 total cpu time :  9352.5 secs   av.it.:  11.8
      thresh= 8.625E-06 alpha_mix =  0.300 |ddv_scf|^2 =  1.947E-09

      iter #   3 total cpu time :  9385.5 secs   av.it.:  12.3
      thresh= 4.413E-06 alpha_mix =  0.300 |ddv_scf|^2 =  1.662E-10

      iter #   4 total cpu time :  9417.0 secs   av.it.:  12.4
      thresh= 1.289E-06 alpha_mix =  0.300 |ddv_scf|^2 =  8.432E-12

      iter #   5 total cpu time :  9450.2 secs   av.it.:  12.4
      thresh= 2.904E-07 alpha_mix =  0.300 |ddv_scf|^2 =  6.209E-13

      iter #   6 total cpu time :  9481.3 secs   av.it.:  12.6
      thresh= 7.880E-08 alpha_mix =  0.300 |ddv_scf|^2 =  7.182E-14

      iter #   7 total cpu time :  9513.0 secs   av.it.:  12.4
      thresh= 2.680E-08 alpha_mix =  0.300 |ddv_scf|^2 =  3.802E-15

     End of self-consistent calculation

     Convergence has been achieved 


     Representation #  32 mode #  32

     Self-consistent Calculation

      iter #   1 total cpu time :  9561.4 secs   av.it.:   7.1
      thresh= 1.000E-02 alpha_mix =  0.300 |ddv_scf|^2 =  1.623E-06

      iter #   2 total cpu time :  9587.7 secs   av.it.:  11.4
      thresh= 1.274E-04 alpha_mix =  0.300 |ddv_scf|^2 =  2.405E-07

      iter #   3 total cpu time :  9615.0 secs   av.it.:  11.9
      thresh= 4.904E-05 alpha_mix =  0.300 |ddv_scf|^2 =  2.305E-08

      iter #   4 total cpu time :  9648.0 secs   av.it.:  12.5
      thresh= 1.518E-05 alpha_mix =  0.300 |ddv_scf|^2 =  7.178E-10

      iter #   5 total cpu time :  9677.6 secs   av.it.:  12.2
      thresh= 2.679E-06 alpha_mix =  0.300 |ddv_scf|^2 =  2.727E-11

      iter #   6 total cpu time :  9708.0 secs   av.it.:  11.4
      thresh= 5.222E-07 alpha_mix =  0.300 |ddv_scf|^2 =  7.447E-12

      iter #   7 total cpu time :  9743.3 secs   av.it.:  12.4
      thresh= 2.729E-07 alpha_mix =  0.300 |ddv_scf|^2 =  8.686E-14

      iter #   8 total cpu time :  9774.2 secs   av.it.:  11.2
      thresh= 2.947E-08 alpha_mix =  0.300 |ddv_scf|^2 =  3.408E-14

      iter #   9 total cpu time :  9809.0 secs   av.it.:  12.5
      thresh= 1.846E-08 alpha_mix =  0.300 |ddv_scf|^2 =  6.664E-16

     End of self-consistent calculation

     Convergence has been achieved 


     Representation #  33 mode #  33

     Self-consistent Calculation

      iter #   1 total cpu time :  9853.7 secs   av.it.:   4.5
      thresh= 1.000E-02 alpha_mix =  0.300 |ddv_scf|^2 =  1.579E-08

      iter #   2 total cpu time :  9882.8 secs   av.it.:  11.6
      thresh= 1.257E-05 alpha_mix =  0.300 |ddv_scf|^2 =  3.202E-09

      iter #   3 total cpu time :  9912.6 secs   av.it.:  12.2
      thresh= 5.659E-06 alpha_mix =  0.300 |ddv_scf|^2 =  2.015E-10

      iter #   4 total cpu time :  9944.2 secs   av.it.:  12.4
      thresh= 1.420E-06 alpha_mix =  0.300 |ddv_scf|^2 =  1.465E-11

      iter #   5 total cpu time :  9975.8 secs   av.it.:  12.5
      thresh= 3.828E-07 alpha_mix =  0.300 |ddv_scf|^2 =  7.759E-13

      iter #   6 total cpu time : 10008.8 secs   av.it.:  12.4
      thresh= 8.809E-08 alpha_mix =  0.300 |ddv_scf|^2 =  1.422E-13

      iter #   7 total cpu time : 10038.6 secs   av.it.:  12.5
      thresh= 3.771E-08 alpha_mix =  0.300 |ddv_scf|^2 =  4.129E-15

     End of self-consistent calculation

     Convergence has been achieved 
 
     Number of q in the star =   24
     List of q in the star:
          1  -0.235702260  -0.471404521   0.471404521
          2   0.235702260  -0.471404521  -0.471404521
          3  -0.235702260  -0.471404521  -0.471404521
          4  -0.235702260   0.471404521  -0.471404521
          5  -0.235702260   0.471404521   0.471404521
          6   0.235702260   0.471404521  -0.471404521
          7   0.235702260  -0.471404521   0.471404521
          8   0.235702260   0.471404521   0.471404521
          9  -0.471404521   0.471404521  -0.235702260
         10   0.471404521   0.471404521   0.235702260
         11   0.471404521   0.471404521  -0.235702260
         12   0.471404521  -0.471404521  -0.235702260
         13   0.471404521  -0.235702260  -0.471404521
         14   0.471404521   0.235702260   0.471404521
         15  -0.471404521   0.235702260  -0.471404521
         16   0.471404521   0.235702260  -0.471404521
         17  -0.471404521   0.235702260   0.471404521
         18  -0.471404521  -0.471404521   0.235702260
         19   0.471404521  -0.235702260   0.471404521
         20  -0.471404521  -0.235702260  -0.471404521
         21  -0.471404521   0.471404521   0.235702260
         22  -0.471404521  -0.235702260   0.471404521
         23   0.471404521  -0.471404521   0.235702260
         24  -0.471404521  -0.471404521  -0.235702260

     Diagonalizing the dynamical matrix

     q = (   -0.235702260  -0.471404521   0.471404521 ) 

 **************************************************************************
     freq (    1) =       6.112673 [THz] =     203.896828 [cm-1]
     freq (    2) =       6.862294 [THz] =     228.901493 [cm-1]
     freq (    3) =       8.575569 [THz] =     286.050177 [cm-1]
     freq (    4) =      16.713510 [THz] =     557.502675 [cm-1]
     freq (    5) =      22.372396 [THz] =     746.262787 [cm-1]
     freq (    6) =      27.057419 [THz] =     902.538344 [cm-1]
     freq (    7) =      28.395583 [THz] =     947.174692 [cm-1]
     freq (    8) =      28.865465 [THz] =     962.848267 [cm-1]
     freq (    9) =      29.405122 [THz] =     980.849279 [cm-1]
     freq (   10) =      30.331069 [THz] =    1011.735569 [cm-1]
     freq (   11) =      31.039564 [THz] =    1035.368394 [cm-1]
     freq (   12) =      36.388015 [THz] =    1213.773528 [cm-1]
     freq (   13) =      37.239125 [THz] =    1242.163515 [cm-1]
     freq (   14) =      39.033247 [THz] =    1302.008974 [cm-1]
     freq (   15) =      40.149304 [THz] =    1339.236633 [cm-1]
     freq (   16) =      40.253320 [THz] =    1342.706225 [cm-1]
     freq (   17) =      40.856253 [THz] =    1362.817899 [cm-1]
     freq (   18) =      41.299805 [THz] =    1377.613217 [cm-1]
     freq (   19) =      41.805185 [THz] =    1394.470881 [cm-1]
     freq (   20) =      42.051936 [THz] =    1402.701605 [cm-1]
     freq (   21) =      42.378052 [THz] =    1413.579671 [cm-1]
     freq (   22) =      43.177440 [THz] =    1440.244372 [cm-1]
     freq (   23) =      45.384623 [THz] =    1513.868074 [cm-1]
     freq (   24) =      46.270439 [THz] =    1543.415725 [cm-1]
     freq (   25) =      46.343063 [THz] =    1545.838181 [cm-1]
     freq (   26) =      48.424858 [THz] =    1615.279398 [cm-1]
     freq (   27) =      49.669599 [THz] =    1656.799479 [cm-1]
     freq (   28) =      51.577646 [THz] =    1720.445081 [cm-1]
     freq (   29) =      51.952427 [THz] =    1732.946425 [cm-1]
     freq (   30) =      52.538776 [THz] =    1752.504917 [cm-1]
     freq (   31) =      52.788517 [THz] =    1760.835403 [cm-1]
     freq (   32) =      57.846060 [THz] =    1929.536875 [cm-1]
     freq (   33) =      60.376320 [THz] =    2013.937266 [cm-1]
 **************************************************************************

     Mode symmetry, C_s (m)     point group:

     freq (   1-   1) =        203.9  [cm-1]   --> A''                
     freq (   2-   2) =        228.9  [cm-1]   --> A'                 
     freq (   3-   3) =        286.1  [cm-1]   --> A'                 
     freq (   4-   4) =        557.5  [cm-1]   --> A''                
     freq (   5-   5) =        746.3  [cm-1]   --> A'                 
     freq (   6-   6) =        902.5  [cm-1]   --> A'                 
     freq (   7-   7) =        947.2  [cm-1]   --> A''                
     freq (   8-   8) =        962.8  [cm-1]   --> A'                 
     freq (   9-   9) =        980.8  [cm-1]   --> A''                
     freq (  10-  10) =       1011.7  [cm-1]   --> A'                 
     freq (  11-  11) =       1035.4  [cm-1]   --> A'                 
     freq (  12-  12) =       1213.8  [cm-1]   --> A''                
     freq (  13-  13) =       1242.2  [cm-1]   --> A'                 
     freq (  14-  14) =       1302.0  [cm-1]   --> A''                
     freq (  15-  15) =       1339.2  [cm-1]   --> A''                
     freq (  16-  16) =       1342.7  [cm-1]   --> A'                 
     freq (  17-  17) =       1362.8  [cm-1]   --> A''                
     freq (  18-  18) =       1377.6  [cm-1]   --> A'                 
     freq (  19-  19) =       1394.5  [cm-1]   --> A''                
     freq (  20-  20) =       1402.7  [cm-1]   --> A''                
     freq (  21-  21) =       1413.6  [cm-1]   --> A'                 
     freq (  22-  22) =       1440.2  [cm-1]   --> A'                 
     freq (  23-  23) =       1513.9  [cm-1]   --> A'                 
     freq (  24-  24) =       1543.4  [cm-1]   --> A''                
     freq (  25-  25) =       1545.8  [cm-1]   --> A'                 
     freq (  26-  26) =       1615.3  [cm-1]   --> A'                 
     freq (  27-  27) =       1656.8  [cm-1]   --> A'                 
     freq (  28-  28) =       1720.4  [cm-1]   --> A''                
     freq (  29-  29) =       1732.9  [cm-1]   --> A''                
     freq (  30-  30) =       1752.5  [cm-1]   --> A'                 
     freq (  31-  31) =       1760.8  [cm-1]   --> A'                 
     freq (  32-  32) =       1929.5  [cm-1]   --> A'                 
     freq (  33-  33) =       2013.9  [cm-1]   --> A'                 
     Electron-phonon interaction  ...

     Gaussian Broadening:   0.005 Ry, ngauss=   0
     DOS =  5.706849 states/spin/Ry/Unit Cell at Ef= 20.445499 eV
     lambda(    1)=  0.2502   gamma=   50.94 GHz
     lambda(    2)=  0.0558   gamma=   14.33 GHz
     lambda(    3)=  0.0475   gamma=   19.02 GHz
     lambda(    4)=  2.1507   gamma= 3274.12 GHz
     lambda(    5)=  1.0217   gamma= 2786.87 GHz
     lambda(    6)=  0.0435   gamma=  173.45 GHz
     lambda(    7)=  0.1469   gamma=  645.55 GHz
     lambda(    8)=  0.0349   gamma=  158.61 GHz
     lambda(    9)=  0.0086   gamma=   40.41 GHz
     lambda(   10)=  0.0784   gamma=  393.05 GHz
     lambda(   11)=  0.0633   gamma=  332.51 GHz
     lambda(   12)=  0.0446   gamma=  321.64 GHz
     lambda(   13)=  0.0653   gamma=  493.80 GHz
     lambda(   14)=  0.0692   gamma=  574.60 GHz
     lambda(   15)=  0.0189   gamma=  166.00 GHz
     lambda(   16)=  0.0349   gamma=  308.20 GHz
     lambda(   17)=  0.0941   gamma=  856.35 GHz
     lambda(   18)=  0.0333   gamma=  309.84 GHz
     lambda(   19)=  0.0220   gamma=  209.74 GHz
     lambda(   20)=  0.1284   gamma= 1237.47 GHz
     lambda(   21)=  0.0687   gamma=  672.08 GHz
     lambda(   22)=  0.0363   gamma=  369.02 GHz
     lambda(   23)=  0.0436   gamma=  488.91 GHz
     lambda(   24)=  0.0279   gamma=  325.93 GHz
     lambda(   25)=  0.0359   gamma=  420.20 GHz
     lambda(   26)=  0.0311   gamma=  397.58 GHz
     lambda(   27)=  0.0417   gamma=  561.23 GHz
     lambda(   28)=  0.0345   gamma=  499.53 GHz
     lambda(   29)=  0.0433   gamma=  636.79 GHz
     lambda(   30)=  0.0191   gamma=  286.69 GHz
     lambda(   31)=  0.0196   gamma=  297.83 GHz
     lambda(   32)=  0.0052   gamma=   95.28 GHz
     lambda(   33)=  0.0101   gamma=  200.93 GHz
     Gaussian Broadening:   0.010 Ry, ngauss=   0
     DOS =  5.493178 states/spin/Ry/Unit Cell at Ef= 20.444376 eV
     lambda(    1)=  0.2033   gamma=   39.84 GHz
     lambda(    2)=  0.0646   gamma=   15.95 GHz
     lambda(    3)=  0.0500   gamma=   19.28 GHz
     lambda(    4)=  1.2717   gamma= 1863.44 GHz
     lambda(    5)=  0.6488   gamma= 1703.38 GHz
     lambda(    6)=  0.0462   gamma=  177.61 GHz
     lambda(    7)=  0.1248   gamma=  527.77 GHz
     lambda(    8)=  0.0342   gamma=  149.26 GHz
     lambda(    9)=  0.0119   gamma=   54.15 GHz
     lambda(   10)=  0.0948   gamma=  457.63 GHz
     lambda(   11)=  0.0718   gamma=  362.94 GHz
     lambda(   12)=  0.0529   gamma=  367.74 GHz
     lambda(   13)=  0.0776   gamma=  564.82 GHz
     lambda(   14)=  0.0728   gamma=  581.98 GHz
     lambda(   15)=  0.0159   gamma=  134.06 GHz
     lambda(   16)=  0.0337   gamma=  286.79 GHz
     lambda(   17)=  0.0572   gamma=  501.17 GHz
     lambda(   18)=  0.0319   gamma=  285.45 GHz
     lambda(   19)=  0.0251   gamma=  230.19 GHz
     lambda(   20)=  0.1348   gamma= 1250.61 GHz
     lambda(   21)=  0.0703   gamma=  662.17 GHz
     lambda(   22)=  0.0387   gamma=  378.76 GHz
     lambda(   23)=  0.0522   gamma=  563.78 GHz
     lambda(   24)=  0.0348   gamma=  390.39 GHz
     lambda(   25)=  0.0367   gamma=  413.31 GHz
     lambda(   26)=  0.0334   gamma=  411.45 GHz
     lambda(   27)=  0.0283   gamma=  366.52 GHz
     lambda(   28)=  0.0217   gamma=  302.73 GHz
     lambda(   29)=  0.0288   gamma=  408.16 GHz
     lambda(   30)=  0.0177   gamma=  255.66 GHz
     lambda(   31)=  0.0202   gamma=  294.73 GHz
     lambda(   32)=  0.0079   gamma=  139.07 GHz
     lambda(   33)=  0.0110   gamma=  211.26 GHz
     Gaussian Broadening:   0.015 Ry, ngauss=   0
     DOS =  5.643591 states/spin/Ry/Unit Cell at Ef= 20.442941 eV
     lambda(    1)=  0.1936   gamma=   38.99 GHz
     lambda(    2)=  0.0654   gamma=   16.60 GHz
     lambda(    3)=  0.0484   gamma=   19.18 GHz
     lambda(    4)=  1.0638   gamma= 1601.56 GHz
     lambda(    5)=  0.5405   gamma= 1458.01 GHz
     lambda(    6)=  0.0465   gamma=  183.44 GHz
     lambda(    7)=  0.1178   gamma=  512.08 GHz
     lambda(    8)=  0.0351   gamma=  157.46 GHz
     lambda(    9)=  0.0138   gamma=   64.11 GHz
     lambda(   10)=  0.0971   gamma=  481.54 GHz
     lambda(   11)=  0.0750   gamma=  389.49 GHz
     lambda(   12)=  0.0583   gamma=  416.01 GHz
     lambda(   13)=  0.0752   gamma=  562.38 GHz
     lambda(   14)=  0.0715   gamma=  586.92 GHz
     lambda(   15)=  0.0153   gamma=  132.49 GHz
     lambda(   16)=  0.0348   gamma=  303.52 GHz
     lambda(   17)=  0.0458   gamma=  412.40 GHz
     lambda(   18)=  0.0305   gamma=  280.10 GHz
     lambda(   19)=  0.0251   gamma=  236.27 GHz
     lambda(   20)=  0.1274   gamma= 1214.32 GHz
     lambda(   21)=  0.0674   gamma=  652.40 GHz
     lambda(   22)=  0.0402   gamma=  403.94 GHz
     lambda(   23)=  0.0559   gamma=  620.07 GHz
     lambda(   24)=  0.0388   gamma=  448.04 GHz
     lambda(   25)=  0.0358   gamma=  414.57 GHz
     lambda(   26)=  0.0323   gamma=  408.24 GHz
     lambda(   27)=  0.0246   gamma=  327.14 GHz
     lambda(   28)=  0.0192   gamma=  275.85 GHz
     lambda(   29)=  0.0229   gamma=  333.78 GHz
     lambda(   30)=  0.0170   gamma=  253.60 GHz
     lambda(   31)=  0.0209   gamma=  313.23 GHz
     lambda(   32)=  0.0095   gamma=  171.84 GHz
     lambda(   33)=  0.0114   gamma=  223.43 GHz
     Gaussian Broadening:   0.020 Ry, ngauss=   0
     DOS =  5.693100 states/spin/Ry/Unit Cell at Ef= 20.442131 eV
     lambda(    1)=  0.1917   gamma=   38.94 GHz
     lambda(    2)=  0.0636   gamma=   16.28 GHz
     lambda(    3)=  0.0466   gamma=   18.65 GHz
     lambda(    4)=  1.0094   gamma= 1532.94 GHz
     lambda(    5)=  0.5008   gamma= 1362.65 GHz
     lambda(    6)=  0.0463   gamma=  184.37 GHz
     lambda(    7)=  0.1153   gamma=  505.39 GHz
     lambda(    8)=  0.0349   gamma=  158.27 GHz
     lambda(    9)=  0.0143   gamma=   67.00 GHz
     lambda(   10)=  0.0957   gamma=  478.87 GHz
     lambda(   11)=  0.0755   gamma=  395.62 GHz
     lambda(   12)=  0.0604   gamma=  434.76 GHz
     lambda(   13)=  0.0725   gamma=  546.48 GHz
     lambda(   14)=  0.0697   gamma=  577.42 GHz
     lambda(   15)=  0.0148   gamma=  129.89 GHz
     lambda(   16)=  0.0346   gamma=  304.37 GHz
     lambda(   17)=  0.0418   gamma=  378.95 GHz
     lambda(   18)=  0.0297   gamma=  275.87 GHz
     lambda(   19)=  0.0248   gamma=  235.88 GHz
     lambda(   20)=  0.1217   gamma= 1169.98 GHz
     lambda(   21)=  0.0647   gamma=  631.37 GHz
     lambda(   22)=  0.0408   gamma=  413.02 GHz
     lambda(   23)=  0.0559   gamma=  625.44 GHz
     lambda(   24)=  0.0397   gamma=  461.73 GHz
     lambda(   25)=  0.0358   gamma=  417.94 GHz
     lambda(   26)=  0.0311   gamma=  397.03 GHz
     lambda(   27)=  0.0233   gamma=  312.51 GHz
     lambda(   28)=  0.0184   gamma=  266.55 GHz
     lambda(   29)=  0.0211   gamma=  309.67 GHz
     lambda(   30)=  0.0166   gamma=  248.63 GHz
     lambda(   31)=  0.0202   gamma=  306.45 GHz
     lambda(   32)=  0.0103   gamma=  186.96 GHz
     lambda(   33)=  0.0113   gamma=  223.24 GHz
     Gaussian Broadening:   0.025 Ry, ngauss=   0
     DOS =  5.666404 states/spin/Ry/Unit Cell at Ef= 20.442478 eV
     lambda(    1)=  0.1902   gamma=   38.46 GHz
     lambda(    2)=  0.0614   gamma=   15.64 GHz
     lambda(    3)=  0.0449   gamma=   17.88 GHz
     lambda(    4)=  0.9891   gamma= 1495.05 GHz
     lambda(    5)=  0.4793   gamma= 1298.12 GHz
     lambda(    6)=  0.0460   gamma=  182.22 GHz
     lambda(    7)=  0.1126   gamma=  491.23 GHz
     lambda(    8)=  0.0346   gamma=  156.01 GHz
     lambda(    9)=  0.0142   gamma=   66.63 GHz
     lambda(   10)=  0.0936   gamma=  465.86 GHz
     lambda(   11)=  0.0743   gamma=  387.55 GHz
     lambda(   12)=  0.0601   gamma=  430.66 GHz
     lambda(   13)=  0.0709   gamma=  531.72 GHz
     lambda(   14)=  0.0679   gamma=  559.40 GHz
     lambda(   15)=  0.0144   gamma=  125.79 GHz
     lambda(   16)=  0.0338   gamma=  296.64 GHz
     lambda(   17)=  0.0399   gamma=  360.44 GHz
     lambda(   18)=  0.0291   gamma=  269.04 GHz
     lambda(   19)=  0.0244   gamma=  231.15 GHz
     lambda(   20)=  0.1179   gamma= 1127.76 GHz
     lambda(   21)=  0.0625   gamma=  607.22 GHz
     lambda(   22)=  0.0407   gamma=  410.40 GHz
     lambda(   23)=  0.0550   gamma=  613.28 GHz
     lambda(   24)=  0.0394   gamma=  456.89 GHz
     lambda(   25)=  0.0355   gamma=  412.27 GHz
     lambda(   26)=  0.0305   gamma=  386.42 GHz
     lambda(   27)=  0.0227   gamma=  303.31 GHz
     lambda(   28)=  0.0179   gamma=  257.44 GHz
     lambda(   29)=  0.0203   gamma=  296.66 GHz
     lambda(   30)=  0.0162   gamma=  242.33 GHz
     lambda(   31)=  0.0195   gamma=  293.84 GHz
     lambda(   32)=  0.0105   gamma=  191.01 GHz
     lambda(   33)=  0.0111   gamma=  218.56 GHz
     Gaussian Broadening:   0.030 Ry, ngauss=   0
     DOS =  5.611139 states/spin/Ry/Unit Cell at Ef= 20.443739 eV
     lambda(    1)=  0.1880   gamma=   37.64 GHz
     lambda(    2)=  0.0593   gamma=   14.96 GHz
     lambda(    3)=  0.0434   gamma=   17.11 GHz
     lambda(    4)=  0.9724   gamma= 1455.50 GHz
     lambda(    5)=  0.4649   gamma= 1246.81 GHz
     lambda(    6)=  0.0455   gamma=  178.29 GHz
     lambda(    7)=  0.1097   gamma=  474.14 GHz
     lambda(    8)=  0.0343   gamma=  153.33 GHz
     lambda(    9)=  0.0141   gamma=   65.16 GHz
     lambda(   10)=  0.0915   gamma=  451.29 GHz
     lambda(   11)=  0.0725   gamma=  374.41 GHz
     lambda(   12)=  0.0588   gamma=  417.11 GHz
     lambda(   13)=  0.0699   gamma=  519.22 GHz
     lambda(   14)=  0.0661   gamma=  539.47 GHz
     lambda(   15)=  0.0141   gamma=  121.54 GHz
     lambda(   16)=  0.0331   gamma=  287.26 GHz
     lambda(   17)=  0.0389   gamma=  347.64 GHz
     lambda(   18)=  0.0286   gamma=  261.49 GHz
     lambda(   19)=  0.0240   gamma=  224.80 GHz
     lambda(   20)=  0.1149   gamma= 1088.29 GHz
     lambda(   21)=  0.0607   gamma=  584.56 GHz
     lambda(   22)=  0.0404   gamma=  403.71 GHz
     lambda(   23)=  0.0541   gamma=  596.99 GHz
     lambda(   24)=  0.0391   gamma=  448.41 GHz
     lambda(   25)=  0.0350   gamma=  402.77 GHz
     lambda(   26)=  0.0299   gamma=  375.77 GHz
     lambda(   27)=  0.0224   gamma=  296.31 GHz
     lambda(   28)=  0.0174   gamma=  248.11 GHz
     lambda(   29)=  0.0198   gamma=  286.12 GHz
     lambda(   30)=  0.0160   gamma=  236.05 GHz
     lambda(   31)=  0.0190   gamma=  283.34 GHz
     lambda(   32)=  0.0106   gamma=  189.50 GHz
     lambda(   33)=  0.0110   gamma=  213.99 GHz
     Gaussian Broadening:   0.035 Ry, ngauss=   0
     DOS =  5.552244 states/spin/Ry/Unit Cell at Ef= 20.445745 eV
     lambda(    1)=  0.1855   gamma=   36.74 GHz
     lambda(    2)=  0.0576   gamma=   14.37 GHz
     lambda(    3)=  0.0422   gamma=   16.45 GHz
     lambda(    4)=  0.9544   gamma= 1413.54 GHz
     lambda(    5)=  0.4549   gamma= 1207.12 GHz
     lambda(    6)=  0.0448   gamma=  174.01 GHz
     lambda(    7)=  0.1072   gamma=  458.18 GHz
     lambda(    8)=  0.0342   gamma=  150.89 GHz
     lambda(    9)=  0.0139   gamma=   63.64 GHz
     lambda(   10)=  0.0899   gamma=  438.51 GHz
     lambda(   11)=  0.0707   gamma=  361.22 GHz
     lambda(   12)=  0.0573   gamma=  402.27 GHz
     lambda(   13)=  0.0692   gamma=  508.96 GHz
     lambda(   14)=  0.0645   gamma=  521.01 GHz
     lambda(   15)=  0.0138   gamma=  117.75 GHz
     lambda(   16)=  0.0325   gamma=  279.42 GHz
     lambda(   17)=  0.0382   gamma=  337.97 GHz
     lambda(   18)=  0.0282   gamma=  254.90 GHz
     lambda(   19)=  0.0236   gamma=  218.51 GHz
     lambda(   20)=  0.1122   gamma= 1051.98 GHz
     lambda(   21)=  0.0593   gamma=  564.58 GHz
     lambda(   22)=  0.0402   gamma=  397.20 GHz
     lambda(   23)=  0.0533   gamma=  581.86 GHz
     lambda(   24)=  0.0389   gamma=  441.22 GHz
     lambda(   25)=  0.0345   gamma=  393.08 GHz
     lambda(   26)=  0.0294   gamma=  365.72 GHz
     lambda(   27)=  0.0223   gamma=  291.22 GHz
     lambda(   28)=  0.0170   gamma=  239.85 GHz
     lambda(   29)=  0.0193   gamma=  276.60 GHz
     lambda(   30)=  0.0158   gamma=  230.63 GHz
     lambda(   31)=  0.0187   gamma=  276.50 GHz
     lambda(   32)=  0.0105   gamma=  186.11 GHz
     lambda(   33)=  0.0109   gamma=  210.90 GHz
     Gaussian Broadening:   0.040 Ry, ngauss=   0
     DOS =  5.498034 states/spin/Ry/Unit Cell at Ef= 20.448391 eV
     lambda(    1)=  0.1830   gamma=   35.90 GHz
     lambda(    2)=  0.0562   gamma=   13.89 GHz
     lambda(    3)=  0.0412   gamma=   15.89 GHz
     lambda(    4)=  0.9357   gamma= 1372.39 GHz
     lambda(    5)=  0.4480   gamma= 1177.29 GHz
     lambda(    6)=  0.0442   gamma=  170.05 GHz
     lambda(    7)=  0.1050   gamma=  444.61 GHz
     lambda(    8)=  0.0340   gamma=  148.64 GHz
     lambda(    9)=  0.0137   gamma=   62.41 GHz
     lambda(   10)=  0.0886   gamma=  427.79 GHz
     lambda(   11)=  0.0691   gamma=  349.55 GHz
     lambda(   12)=  0.0560   gamma=  389.00 GHz
     lambda(   13)=  0.0688   gamma=  500.84 GHz
     lambda(   14)=  0.0631   gamma=  505.00 GHz
     lambda(   15)=  0.0135   gamma=  114.53 GHz
     lambda(   16)=  0.0322   gamma=  273.77 GHz
     lambda(   17)=  0.0377   gamma=  330.30 GHz
     lambda(   18)=  0.0279   gamma=  249.63 GHz
     lambda(   19)=  0.0232   gamma=  212.83 GHz
     lambda(   20)=  0.1097   gamma= 1018.84 GHz
     lambda(   21)=  0.0581   gamma=  547.42 GHz
     lambda(   22)=  0.0401   gamma=  392.14 GHz
     lambda(   23)=  0.0526   gamma=  569.18 GHz
     lambda(   24)=  0.0388   gamma=  436.15 GHz
     lambda(   25)=  0.0341   gamma=  384.40 GHz
     lambda(   26)=  0.0290   gamma=  356.85 GHz
     lambda(   27)=  0.0222   gamma=  287.68 GHz
     lambda(   28)=  0.0167   gamma=  233.00 GHz
     lambda(   29)=  0.0189   gamma=  267.95 GHz
     lambda(   30)=  0.0156   gamma=  226.25 GHz
     lambda(   31)=  0.0186   gamma=  272.46 GHz
     lambda(   32)=  0.0104   gamma=  182.49 GHz
     lambda(   33)=  0.0109   gamma=  209.16 GHz
     Gaussian Broadening:   0.045 Ry, ngauss=   0
     DOS =  5.450225 states/spin/Ry/Unit Cell at Ef= 20.451582 eV
     lambda(    1)=  0.1808   gamma=   35.16 GHz
     lambda(    2)=  0.0551   gamma=   13.50 GHz
     lambda(    3)=  0.0403   gamma=   15.42 GHz
     lambda(    4)=  0.9176   gamma= 1334.04 GHz
     lambda(    5)=  0.4432   gamma= 1154.60 GHz
     lambda(    6)=  0.0437   gamma=  166.65 GHz
     lambda(    7)=  0.1033   gamma=  433.37 GHz
     lambda(    8)=  0.0338   gamma=  146.50 GHz
     lambda(    9)=  0.0137   gamma=   61.47 GHz
     lambda(   10)=  0.0874   gamma=  418.69 GHz
     lambda(   11)=  0.0677   gamma=  339.53 GHz
     lambda(   12)=  0.0548   gamma=  377.79 GHz
     lambda(   13)=  0.0685   gamma=  494.71 GHz
     lambda(   14)=  0.0620   gamma=  491.39 GHz
     lambda(   15)=  0.0133   gamma=  111.86 GHz
     lambda(   16)=  0.0320   gamma=  270.04 GHz
     lambda(   17)=  0.0373   gamma=  323.99 GHz
     lambda(   18)=  0.0277   gamma=  245.60 GHz
     lambda(   19)=  0.0228   gamma=  207.83 GHz
     lambda(   20)=  0.1074   gamma=  988.46 GHz
     lambda(   21)=  0.0570   gamma=  532.86 GHz
     lambda(   22)=  0.0401   gamma=  388.61 GHz
     lambda(   23)=  0.0521   gamma=  558.81 GHz
     lambda(   24)=  0.0389   gamma=  432.99 GHz
     lambda(   25)=  0.0337   gamma=  377.01 GHz
     lambda(   26)=  0.0286   gamma=  349.33 GHz
     lambda(   27)=  0.0222   gamma=  285.32 GHz
     lambda(   28)=  0.0164   gamma=  227.37 GHz
     lambda(   29)=  0.0185   gamma=  260.24 GHz
     lambda(   30)=  0.0155   gamma=  222.82 GHz
     lambda(   31)=  0.0186   gamma=  270.16 GHz
     lambda(   32)=  0.0103   gamma=  179.27 GHz
     lambda(   33)=  0.0110   gamma=  208.38 GHz
     Gaussian Broadening:   0.050 Ry, ngauss=   0
     DOS =  5.408705 states/spin/Ry/Unit Cell at Ef= 20.455233 eV
     lambda(    1)=  0.1790   gamma=   34.54 GHz
     lambda(    2)=  0.0542   gamma=   13.19 GHz
     lambda(    3)=  0.0395   gamma=   15.02 GHz
     lambda(    4)=  0.9006   gamma= 1299.43 GHz
     lambda(    5)=  0.4397   gamma= 1136.79 GHz
     lambda(    6)=  0.0433   gamma=  163.81 GHz
     lambda(    7)=  0.1018   gamma=  424.10 GHz
     lambda(    8)=  0.0336   gamma=  144.47 GHz
     lambda(    9)=  0.0136   gamma=   60.77 GHz
     lambda(   10)=  0.0865   gamma=  410.87 GHz
     lambda(   11)=  0.0665   gamma=  330.99 GHz
     lambda(   12)=  0.0539   gamma=  368.47 GHz
     lambda(   13)=  0.0685   gamma=  490.39 GHz
     lambda(   14)=  0.0610   gamma=  479.93 GHz
     lambda(   15)=  0.0132   gamma=  109.71 GHz
     lambda(   16)=  0.0320   gamma=  267.87 GHz
     lambda(   17)=  0.0370   gamma=  318.68 GHz
     lambda(   18)=  0.0276   gamma=  242.71 GHz
     lambda(   19)=  0.0225   gamma=  203.50 GHz
     lambda(   20)=  0.1052   gamma=  960.49 GHz
     lambda(   21)=  0.0561   gamma=  520.63 GHz
     lambda(   22)=  0.0401   gamma=  386.38 GHz
     lambda(   23)=  0.0517   gamma=  550.35 GHz
     lambda(   24)=  0.0390   gamma=  431.45 GHz
     lambda(   25)=  0.0334   gamma=  370.90 GHz
     lambda(   26)=  0.0283   gamma=  343.19 GHz
     lambda(   27)=  0.0223   gamma=  283.92 GHz
     lambda(   28)=  0.0162   gamma=  222.76 GHz
     lambda(   29)=  0.0182   gamma=  253.52 GHz
     lambda(   30)=  0.0154   gamma=  220.25 GHz
     lambda(   31)=  0.0187   gamma=  268.92 GHz
     lambda(   32)=  0.0102   gamma=  176.69 GHz
     lambda(   33)=  0.0111   gamma=  208.29 GHz
 
 
     Number of q in the star =   24
     List of q in the star:
          1  -0.235702260  -0.471404521   0.471404521
          2   0.235702260  -0.471404521  -0.471404521
          3  -0.235702260  -0.471404521  -0.471404521
          4  -0.235702260   0.471404521  -0.471404521
          5  -0.235702260   0.471404521   0.471404521
          6   0.235702260   0.471404521  -0.471404521
          7   0.235702260  -0.471404521   0.471404521
          8   0.235702260   0.471404521   0.471404521
          9  -0.471404521   0.471404521  -0.235702260
         10   0.471404521   0.471404521   0.235702260
         11   0.471404521   0.471404521  -0.235702260
         12   0.471404521  -0.471404521  -0.235702260
         13   0.471404521  -0.235702260  -0.471404521
         14   0.471404521   0.235702260   0.471404521
         15  -0.471404521   0.235702260  -0.471404521
         16   0.471404521   0.235702260  -0.471404521
         17  -0.471404521   0.235702260   0.471404521
         18  -0.471404521  -0.471404521   0.235702260
         19   0.471404521  -0.235702260   0.471404521
         20  -0.471404521  -0.235702260  -0.471404521
         21  -0.471404521   0.471404521   0.235702260
         22  -0.471404521  -0.235702260   0.471404521
         23   0.471404521  -0.471404521   0.235702260
         24  -0.471404521  -0.471404521  -0.235702260
 
     init_run     :      0.47s CPU      0.71s WALL (       1 calls)
     electrons    :     38.30s CPU     48.07s WALL (       1 calls)

     Called by init_run:
     wfcinit      :      0.00s CPU      0.08s WALL (       1 calls)
     potinit      :      0.23s CPU      0.37s WALL (       1 calls)
     hinit0       :      0.10s CPU      0.11s WALL (       1 calls)

     Called by electrons:
     c_bands      :     38.29s CPU     48.05s WALL (       1 calls)
     v_of_rho     :      0.02s CPU      0.03s WALL (       2 calls)
     newd         :      0.05s CPU      0.08s WALL (       2 calls)
     PAW_pot      :      0.41s CPU      0.49s WALL (       2 calls)

     Called by c_bands:
     init_us_2    :      8.85s CPU     10.31s WALL (   95004 calls)
     cegterg      :     22.10s CPU     23.33s WALL (     852 calls)

     Called by *egterg:
     cdiaghg      :      6.99s CPU      7.25s WALL (   13440 calls)
     h_psi        :   2179.04s CPU   2926.46s WALL ( 1331898 calls)
     s_psi        :     58.54s CPU     63.73s WALL ( 2719938 calls)
     g_psi        :      0.07s CPU      0.08s WALL (   12972 calls)

     Called by h_psi:
     h_psi:calbec :     39.51s CPU     42.93s WALL ( 1331898 calls)
     vloc_psi     :   2099.00s CPU   2839.45s WALL ( 1331898 calls)
     add_vuspsi   :     30.14s CPU     32.86s WALL ( 1331898 calls)

     General routines
     calbec       :    178.42s CPU    186.87s WALL ( 2832258 calls)
     fft          :      2.29s CPU      3.03s WALL (    6307 calls)
     ffts         :    160.64s CPU    253.31s WALL (    9481 calls)
     fftw         :   3153.06s CPU   4557.65s WALL (22623024 calls)
     interpolate  :      0.79s CPU      1.11s WALL (     637 calls)
     davcio       :     29.58s CPU   1451.25s WALL (  396649 calls)
 
     Parallel routines
 
     PHONON       :      1h52m CPU      2h48m WALL

     INITIALIZATION: 
     phq_setup    :      0.03s CPU      0.07s WALL (       1 calls)
     phq_init     :     34.30s CPU     40.44s WALL (       1 calls)
 
     phq_init     :     34.30s CPU     40.44s WALL (       1 calls)
     set_drhoc    :      0.00s CPU      0.00s WALL (       3 calls)
     init_vloc    :      0.01s CPU      0.01s WALL (       2 calls)
     init_us_1    :      0.15s CPU      0.22s WALL (       2 calls)
     init_us_2    :      8.85s CPU     10.31s WALL (   95004 calls)
     newd         :      0.05s CPU      0.08s WALL (       2 calls)
     dvanqq       :      1.73s CPU      1.74s WALL (       1 calls)
     drho         :     22.28s CPU     26.81s WALL (       1 calls)
     drhous       :     11.49s CPU     13.91s WALL (       1 calls)
     nldyntot     :      0.86s CPU      0.86s WALL (       1 calls)
 
     DYNAMICAL MATRIX:
     dynmat0      :      5.71s CPU      6.55s WALL (       1 calls)
     dynmat_us    :      5.66s CPU      6.49s WALL (       1 calls)
     addusdynmat  :      0.00s CPU      0.00s WALL (       1 calls)
     d2ionq       :      0.04s CPU      0.04s WALL (       1 calls)
     dynmatcc     :      0.01s CPU      0.01s WALL (       1 calls)
     phqscf       :   6641.93s CPU   9963.06s WALL (       1 calls)
     dynmatrix    :      0.52s CPU      0.68s WALL (       1 calls)
 
     phqscf       :   6641.93s CPU   9963.06s WALL (       1 calls)
     solve_linter :   6544.10s CPU   9831.90s WALL (      33 calls)
     sth_kernel   :   5740.34s CPU   8325.95s WALL (     301 calls)
     h_prec       :   1747.98s CPU   1776.58s WALL (   70434 calls)
     apply_dpot_b :    767.60s CPU   1199.53s WALL (   70434 calls)
     ortho        :    108.78s CPU    111.43s WALL (   70434 calls)
     cgsolve      :   2337.62s CPU   3099.51s WALL (   70434 calls)
     incdrhoscf   :    508.27s CPU    761.28s WALL (   70434 calls)
                                        0.00s GPU  (   70434 calls)
     addusddens   :     32.91s CPU     39.24s WALL (     334 calls)
     vpsifft      :    163.90s CPU    262.23s WALL (    7722 calls)
     dv_of_drho   :      2.65s CPU      3.01s WALL (     301 calls)
     mix_pot      :     51.63s CPU    174.30s WALL (     301 calls)
     drhodv       :     97.77s CPU    112.57s WALL (      33 calls)
     psymdvscf    :     37.36s CPU     37.82s WALL (     301 calls)
     newdq        :     26.79s CPU     27.02s WALL (     301 calls)
     adddvscf     :      8.78s CPU      9.62s WALL (   70434 calls)
     com_dvloc    :    160.31s CPU    252.74s WALL (    8844 calls)
                                        0.00s GPU  (    8844 calls)
     addcore      :      0.47s CPU      0.56s WALL (    1423 calls)
                                        0.00s GPU  (    1423 calls)
     drhodvus     :     14.72s CPU     51.15s WALL (      33 calls)
 
     dvqpsi_us    :    194.33s CPU    288.61s WALL (    7722 calls)
                                        0.00s GPU  (    7722 calls)
     dvqpsi_us_on :     23.05s CPU     23.40s WALL (    7722 calls)
 
     add_vuspsi   :     30.14s CPU     32.86s WALL ( 1331898 calls)
     addusdbec    :      4.43s CPU      4.79s WALL (   78156 calls)
 
     drhodvus     :     14.72s CPU     51.15s WALL (      33 calls)
 
      Electron-phonon coupling
     elphel       :    196.32s CPU    361.34s WALL (      33 calls)
     elphsum      :     27.38s CPU     28.42s WALL (       1 calls)
 
      General routines
     calbec       :    178.42s CPU    186.87s WALL ( 2832258 calls)
     fft          :      2.29s CPU      3.03s WALL (    6307 calls)
     ffts         :    160.64s CPU    253.31s WALL (    9481 calls)
     fftw         :   3153.06s CPU   4557.65s WALL (22623024 calls)
     davcio       :     29.58s CPU   1451.25s WALL (  396649 calls)
     write_rec    :      0.42s CPU    206.02s WALL (     334 calls)
 
      Additional routines
     ch_psi       :   2313.15s CPU   3072.55s WALL ( 1317606 calls)
     last         :    103.98s CPU    113.14s WALL ( 1317606 calls)
     Hesh         :      3.55s CPU      3.96s WALL ( 1317606 calls)
     ch_psi_all_k :     94.38s CPU    102.71s WALL ( 1317606 calls)
                                        0.00s GPU  ( 1317606 calls)
     ch_psi_calbe :     31.96s CPU     34.58s WALL ( 1317606 calls)
                                        0.00s GPU  ( 1317606 calls)
     h_psi_bgrp   :   2181.76s CPU   2929.35s WALL ( 1331898 calls)
     h_psi        :   2179.04s CPU   2926.46s WALL ( 1331898 calls)
     h_psi:pot    :   2174.45s CPU   2921.36s WALL ( 1331898 calls)
     h_psi:calbec :     39.51s CPU     42.93s WALL ( 1331898 calls)
     s_psi_bgrp   :     67.18s CPU     73.06s WALL ( 2719938 calls)
     s_psi        :     58.54s CPU     63.73s WALL ( 2719938 calls)
 
 
     PHONON       :      1h52m CPU      2h48m WALL

 
   This run was terminated on:  16:45:17  22Oct2025            

=------------------------------------------------------------------------------=
   JOB DONE.
=------------------------------------------------------------------------------=
