
     Program PHONON v.7.4.1 starts on 22Oct2025 at 12:51:40 

     This program is part of the open-source Quantum ESPRESSO suite
     for quantum simulation of materials; please cite
         "P. Giannozzi et al., J. Phys.:Condens. Matter 21 395502 (2009);
         "P. Giannozzi et al., J. Phys.:Condens. Matter 29 465901 (2017);
         "P. Giannozzi et al., J. Chem. Phys. 152 154105 (2020);
          URL http://www.quantum-espresso.org", 
     in publications or presentations arising from this work. More details at
     http://www.quantum-espresso.org/quote

     Parallel version (MPI), running on    48 processors

     MPI processes distributed on     1 nodes
     180995 MiB available memory on the printing compute node when the environment starts
 
     Waiting for input...
     Reading input from standard input

     Reading xml data from directory:

     ./tmp/La1H10.save/
 
     K-points division:     npool     =       4
     R & G space division:  proc/nbgrp/npool/nimage =      12
     Subspace diagonalization in iterative solution of the eigenvalue problem:
     a serial algorithm will be used

     file La.pbe-spfn-kjpaw_psl.1.0.0.UPF: wavefunction(s)  5S 5D 4F renormalized
     file H.pbe-kjpaw_psl.1.0.0.UPF: wavefunction(s)  1S renormalized

     IMPORTANT: XC functional enforced from input :
     Exchange-correlation= PBE
                           (   1   4   3   4   0   0   0)
     Any further DFT definition will be discarded
     Please, verify this is what you really want

 
     Parallelization info
     --------------------
     sticks:   dense  smooth     PW     G-vecs:    dense   smooth      PW
     Min         231      77     23                 8029     1540     259
     Max         232      78     24                 8031     1543     261
     Sum        2773     925    283                96353    18499    3119
 
     Using Slab Decomposition
 
     Reading collected, re-writing distributed wavefunctions in ./tmp/


     Dynamical matrices for ( 6, 6, 6)  uniform grid of q-points
     (  16 q-points):
       N         xq(1)         xq(2)         xq(3) 
       1   0.000000000   0.000000000   0.000000000
       2   0.117851130   0.117851130  -0.117851130
       3   0.235702260   0.235702260  -0.235702260
       4  -0.353553391  -0.353553391   0.353553391
       5   0.235702260   0.000000000   0.000000000
       6   0.353553391   0.117851130  -0.117851130
       7  -0.235702260  -0.471404521   0.471404521
       8  -0.117851130  -0.353553391   0.353553391
       9   0.000000000  -0.235702260   0.235702260
      10   0.471404521   0.000000000   0.000000000
      11  -0.117851130  -0.589255651   0.589255651
      12  -0.000000000  -0.471404521   0.471404521
      13  -0.707106781   0.000000000   0.000000000
      14  -0.235702260  -0.471404521   0.707106781
      15  -0.117851130  -0.353553391   0.589255651
      16  -0.707106781   0.235702260   0.000000000

     Number and degeneracy of irreps per q-point
       N         xq(1)         xq(2)         xq(3)   N irreps
       1   0.000000000   0.000000000   0.000000000      13
        1   2   3   3   3   3   1   2   3   3   3   3   3
       2   0.117851130   0.117851130  -0.117851130      22
        1   1   1   1   1   1   1   1   1   1   1   2   2   2   2   2   2   2
   2   2   2   2
       3   0.235702260   0.235702260  -0.235702260      22
        1   1   1   1   1   1   1   1   1   1   1   2   2   2   2   2   2   2
   2   2   2   2
       4  -0.353553391  -0.353553391   0.353553391      22
        1   1   1   1   1   2   2   2   2   2   1   1   1   1   1   1   2   2
   2   2   2   2
       5   0.235702260   0.000000000   0.000000000      24
        1   1   1   1   1   1   1   1   1   1   1   1   1   1   1   2   2   2
   2   2   2   2   2   2
       6   0.353553391   0.117851130  -0.117851130      33
     No degeneracy
       7  -0.235702260  -0.471404521   0.471404521      33
     No degeneracy
       8  -0.117851130  -0.353553391   0.353553391      33
     No degeneracy
       9   0.000000000  -0.235702260   0.235702260      33
     No degeneracy
      10   0.471404521   0.000000000   0.000000000      24
        1   1   1   1   1   1   1   1   1   1   1   1   1   1   1   2   2   2
   2   2   2   2   2   2
      11  -0.117851130  -0.589255651   0.589255651      33
     No degeneracy
      12  -0.000000000  -0.471404521   0.471404521      33
     No degeneracy
      13  -0.707106781   0.000000000   0.000000000      24
        1   1   1   1   1   1   1   2   2   2   2   1   1   1   1   1   1   1
   1   2   2   2   2   2
      14  -0.235702260  -0.471404521   0.707106781      33
     No degeneracy
      15  -0.117851130  -0.353553391   0.589255651      33
     No degeneracy
Eigenvectors exchange needed    7   16
      16  -0.707106781   0.235702260   0.000000000      32
        1   1   1   1   1   1   2   1   1   1   1   1   1   1   1   1   1   1
   1   1   1   1   1   1   1   1   1   1   1   1   1   1

     Saving dvscf to file. Distribute only q points, not irreducible representations.

     Calculation of q =    0.1178511   0.1178511  -0.1178511
 
     Parallelization info
     --------------------
     sticks:   dense  smooth     PW     G-vecs:    dense   smooth      PW
     Min         231      77     24                 8029     1540     273
     Max         232      78     25                 8031     1543     275
     Sum        2773     925    295                96353    18499    3287
 
     Using Slab Decomposition
 

     Title: 
     Electron-phonon coefficients for La1H10                                    


     bravais-lattice index     =            0
     lattice parameter (alat)  =       6.4716  a.u.
     unit-cell volume          =     191.6541 (a.u.)^3
     number of atoms/cell      =           11
     number of atomic types    =            2
     number of electrons       =        21.00
     number of Kohn-Sham states=           15
     kinetic-energy cutoff     =      80.0000  Ry
     charge density cutoff     =     960.0000  Ry
     Exchange-correlation= PBE
                           (   1   4   3   4   0   0   0)

     celldm(1)=   6.471590  celldm(2)=   0.000000  celldm(3)=   0.000000
     celldm(4)=   0.000000  celldm(5)=   0.000000  celldm(6)=   0.000000

     crystal axes: (cart. coord. in units of alat)
               a(1) = (   0.000000   0.707107   0.707107 )  
               a(2) = (   0.707107   0.000000   0.707107 )  
               a(3) = (   0.707107   0.707107   0.000000 )  

     reciprocal axes: (cart. coord. in units 2 pi/alat)
               b(1) = ( -0.707107  0.707107  0.707107 )  
               b(2) = (  0.707107 -0.707107  0.707107 )  
               b(3) = (  0.707107  0.707107 -0.707107 )  


     PseudoPot. # 1 for La read from file:
     /work/home/mayuan/workplace/1.typical_hydride/003.MH10/1.LaH10/250/Tc-666-paw/pp/La.pbe-spfn-kjpaw_psl.1.0.0.UPF
     MD5 check sum: ccc10218a00d76b68822f6b8f5772390
     Pseudo is Projector augmented-wave + core cor, Zval = 11.0
     Generated using 'atomic' code by A. Dal Corso  v.7.1
     Shape of augmentation charge: PSQ
     Using radial grid of 1253 points,  8 beta functions with: 
                l(1) =   0
                l(2) =   0
                l(3) =   1
                l(4) =   1
                l(5) =   2
                l(6) =   2
                l(7) =   3
                l(8) =   3
     Q(r) pseudized with 0 coefficients 


     PseudoPot. # 2 for H  read from file:
     /work/home/mayuan/workplace/1.typical_hydride/003.MH10/1.LaH10/250/Tc-666-paw/pp/H.pbe-kjpaw_psl.1.0.0.UPF
     MD5 check sum: 3bb27c602ede137025941d095c9090b7
     Pseudo is Projector augmented-wave, Zval =  1.0
     Generated using 'atomic' code by A. Dal Corso  v.7.1
     Shape of augmentation charge: PSQ
     Using radial grid of  929 points,  2 beta functions with: 
                l(1) =   0
                l(2) =   0
     Q(r) pseudized with 0 coefficients 


     atomic species   valence    mass     pseudopotential
     La               11.00   138.90547     La( 1.00)
     H                 1.00     1.00794     H ( 1.00)

     48 Sym. Ops., with inversion, found



   Cartesian axes

     site n.     atom                  positions (alat units)
         1        La     tau(   1) = (   0.0000000   0.0000000   0.0000000  )
         2        H      tau(   2) = (   0.3535534   0.3535534   0.3535534  )
         3        H      tau(   3) = (   1.0606602   1.0606602   1.0606602  )
         4        H      tau(   4) = (   0.8776866   0.8776866   0.8776866  )
         5        H      tau(   5) = (   0.5365270   0.5365270   0.5365270  )
         6        H      tau(   6) = (   0.5365270   0.5365270   0.8776866  )
         7        H      tau(   7) = (   0.8776866   0.8776866   0.5365270  )
         8        H      tau(   8) = (   0.5365270   0.8776866   0.5365270  )
         9        H      tau(   9) = (   0.8776866   0.5365270   0.8776866  )
        10        H      tau(  10) = (   0.8776866   0.5365270   0.5365270  )
        11        H      tau(  11) = (   0.5365270   0.8776866   0.8776866  )

     number of k points=   728  Gaussian smearing, width (Ry)=  0.0200

     Number of k-points >= 100: set verbosity='high' to print them.

     Dense  grid:    96353 G-vectors     FFT dimensions: (  64,  64,  64)

     Smooth grid:    18499 G-vectors     FFT dimensions: (  40,  40,  40)

     Estimated max dynamical RAM per process >      32.56 MB

     Estimated total dynamical RAM >       1.53 GB

     The potential is recalculated from file :
     ./tmp/_ph0/La1H10.q_2/La1H10.save/charge-density

     Starting wfcs are   30 atomic wfcs
     Checking if some PAW data can be deallocated... 

     Band Structure Calculation
     Davidson diagonalization with overlap

     ethr =  4.76E-11,  avg # of iterations = 29.6

     total cpu time spent up to now is       18.5 secs

     End of band structure calculation

     Number of k-points >= 100: set verbosity='high' to print the bands.

     the Fermi energy is    20.4236 ev

     Writing config to output data dir ./tmp/_ph0/La1H10.q_2/La1H10.save/ :
     XML data file

     Electron-phonon coefficients for La1H10                                    

     bravais-lattice index     =            0
     lattice parameter (alat)  =       6.4716  a.u.
     unit-cell volume          =     191.6541 (a.u.)^3
     number of atoms/cell      =           11
     number of atomic types    =            2
     kinetic-energy cut-off    =      80.0000  Ry
     charge density cut-off    =     960.0000  Ry
     convergence threshold     =      1.0E-14
     beta                      =       0.3000
     number of iterations used =            4
     Exchange-correlation= PBE
                           (   1   4   3   4   0   0   0)


     celldm(1)=    6.47159  celldm(2)=    0.00000  celldm(3)=    0.00000
     celldm(4)=    0.00000  celldm(5)=    0.00000  celldm(6)=    0.00000

     crystal axes: (cart. coord. in units of alat)
               a(1) = (  0.0000  0.7071  0.7071 )  
               a(2) = (  0.7071  0.0000  0.7071 )  
               a(3) = (  0.7071  0.7071  0.0000 )  

     reciprocal axes: (cart. coord. in units 2 pi/alat)
               b(1) = ( -0.7071  0.7071  0.7071 )  
               b(2) = (  0.7071 -0.7071  0.7071 )  
               b(3) = (  0.7071  0.7071 -0.7071 )  


     Atoms inside the unit cell: 

     Cartesian axes

     site n.  atom      mass           positions (alat units)
        1  La    138.9055   tau(    1) = (    0.00000    0.00000    0.00000  )
        2  H       1.0079   tau(    2) = (    0.35355    0.35355    0.35355  )
        3  H       1.0079   tau(    3) = (    1.06066    1.06066    1.06066  )
        4  H       1.0079   tau(    4) = (    0.87769    0.87769    0.87769  )
        5  H       1.0079   tau(    5) = (    0.53653    0.53653    0.53653  )
        6  H       1.0079   tau(    6) = (    0.53653    0.53653    0.87769  )
        7  H       1.0079   tau(    7) = (    0.87769    0.87769    0.53653  )
        8  H       1.0079   tau(    8) = (    0.53653    0.87769    0.53653  )
        9  H       1.0079   tau(    9) = (    0.87769    0.53653    0.87769  )
       10  H       1.0079   tau(   10) = (    0.87769    0.53653    0.53653  )
       11  H       1.0079   tau(   11) = (    0.53653    0.87769    0.87769  )

     Computing dynamical matrix for 
                    q = (   0.1178511   0.1178511  -0.1178511 )
 
      6 Sym.Ops. (no q -> -q+G )


     G cutoff = 1018.4355  (   8029 G-vectors)     FFT grid: ( 64, 64, 64)
     G cutoff =  339.4785  (   1542 G-vectors)  smooth grid: ( 40, 40, 40)

     number of k points=   728  Gaussian smearing, width (Ry)=  0.0200

     PseudoPot. # 1 for La read from file:
     /work/home/mayuan/workplace/1.typical_hydride/003.MH10/1.LaH10/250/Tc-666-paw/pp/La.pbe-spfn-kjpaw_psl.1.0.0.UPF
     MD5 check sum: ccc10218a00d76b68822f6b8f5772390
     Pseudo is Projector augmented-wave + core cor, Zval = 11.0
     Generated using 'atomic' code by A. Dal Corso  v.7.1
     Shape of augmentation charge: PSQ
     Using radial grid of 1253 points,  8 beta functions with: 
                l(1) =   0
                l(2) =   0
                l(3) =   1
                l(4) =   1
                l(5) =   2
                l(6) =   2
                l(7) =   3
                l(8) =   3
     Q(r) pseudized with 0 coefficients 


     PseudoPot. # 2 for H  read from file:
     /work/home/mayuan/workplace/1.typical_hydride/003.MH10/1.LaH10/250/Tc-666-paw/pp/H.pbe-kjpaw_psl.1.0.0.UPF
     MD5 check sum: 3bb27c602ede137025941d095c9090b7
     Pseudo is Projector augmented-wave, Zval =  1.0
     Generated using 'atomic' code by A. Dal Corso  v.7.1
     Shape of augmentation charge: PSQ
     Using radial grid of  929 points,  2 beta functions with: 
                l(1) =   0
                l(2) =   0
     Q(r) pseudized with 0 coefficients 


     Mode symmetry, C_3v (3m)   point group:


     Atomic displacements:
     There are   22 irreducible representations

     Representation     1      1 modes -  To be done

     Representation     2      1 modes -  To be done

     Representation     3      1 modes -  To be done

     Representation     4      1 modes -  To be done

     Representation     5      1 modes -  To be done

     Representation     6      1 modes -  To be done

     Representation     7      1 modes -  To be done

     Representation     8      1 modes -  To be done

     Representation     9      1 modes -  To be done

     Representation    10      1 modes -  To be done

     Representation    11      1 modes -  To be done

     Representation    12      2 modes -  To be done

     Representation    13      2 modes -  To be done

     Representation    14      2 modes -  To be done

     Representation    15      2 modes -  To be done

     Representation    16      2 modes -  To be done

     Representation    17      2 modes -  To be done

     Representation    18      2 modes -  To be done

     Representation    19      2 modes -  To be done

     Representation    20      2 modes -  To be done

     Representation    21      2 modes -  To be done

     Representation    22      2 modes -  To be done


     Message from routine init_vloc:
     Interpolation table for Vloc re-allocated

     Alpha used in Ewald sum =   2.8000
     PHONON       :     31.32s CPU     45.34s WALL



     Representation #   1 mode #   1

     Self-consistent Calculation

      iter #   1 total cpu time :    55.2 secs   av.it.:   5.8
      thresh= 1.000E-02 alpha_mix =  0.300 |ddv_scf|^2 =  1.174E-03

      iter #   2 total cpu time :    67.2 secs   av.it.:   9.6
      thresh= 3.426E-03 alpha_mix =  0.300 |ddv_scf|^2 =  1.208E-01

      iter #   3 total cpu time :    77.3 secs   av.it.:   8.0
      thresh= 1.000E-02 alpha_mix =  0.300 |ddv_scf|^2 =  1.839E-07

      iter #   4 total cpu time :    91.0 secs   av.it.:  10.0
      thresh= 4.288E-05 alpha_mix =  0.300 |ddv_scf|^2 =  2.880E-09

      iter #   5 total cpu time :   103.7 secs   av.it.:  11.7
      thresh= 5.367E-06 alpha_mix =  0.300 |ddv_scf|^2 =  1.529E-09

      iter #   6 total cpu time :   115.2 secs   av.it.:   8.4
      thresh= 3.910E-06 alpha_mix =  0.300 |ddv_scf|^2 =  2.162E-09

      iter #   7 total cpu time :   125.3 secs   av.it.:  10.1
      thresh= 4.650E-06 alpha_mix =  0.300 |ddv_scf|^2 =  1.903E-11

      iter #   8 total cpu time :   138.8 secs   av.it.:  11.3
      thresh= 4.362E-07 alpha_mix =  0.300 |ddv_scf|^2 =  3.152E-12

      iter #   9 total cpu time :   156.2 secs   av.it.:  12.0
      thresh= 1.775E-07 alpha_mix =  0.300 |ddv_scf|^2 =  5.428E-12

      iter #  10 total cpu time :   169.5 secs   av.it.:  10.3
      thresh= 2.330E-07 alpha_mix =  0.300 |ddv_scf|^2 =  2.912E-13

      iter #  11 total cpu time :   182.7 secs   av.it.:  10.7
      thresh= 5.396E-08 alpha_mix =  0.300 |ddv_scf|^2 =  3.037E-14

      iter #  12 total cpu time :   199.1 secs   av.it.:  10.8
      thresh= 1.743E-08 alpha_mix =  0.300 |ddv_scf|^2 =  2.075E-13

      iter #  13 total cpu time :   215.0 secs   av.it.:   9.9
      thresh= 4.556E-08 alpha_mix =  0.300 |ddv_scf|^2 =  1.001E-14

      iter #  14 total cpu time :   229.7 secs   av.it.:  11.2
      thresh= 1.001E-08 alpha_mix =  0.300 |ddv_scf|^2 =  8.338E-16

     End of self-consistent calculation

     Convergence has been achieved 


     Representation #   2 mode #   2

     Self-consistent Calculation

      iter #   1 total cpu time :   246.2 secs   av.it.:   5.2
      thresh= 1.000E-02 alpha_mix =  0.300 |ddv_scf|^2 =  4.223E-04

      iter #   2 total cpu time :   257.9 secs   av.it.:   9.6
      thresh= 2.055E-03 alpha_mix =  0.300 |ddv_scf|^2 =  4.347E-02

      iter #   3 total cpu time :   269.4 secs   av.it.:   7.3
      thresh= 1.000E-02 alpha_mix =  0.300 |ddv_scf|^2 =  5.427E-08

      iter #   4 total cpu time :   282.0 secs   av.it.:  10.5
      thresh= 2.330E-05 alpha_mix =  0.300 |ddv_scf|^2 =  1.084E-09

      iter #   5 total cpu time :   295.0 secs   av.it.:  12.0
      thresh= 3.292E-06 alpha_mix =  0.300 |ddv_scf|^2 =  2.404E-09

      iter #   6 total cpu time :   307.0 secs   av.it.:   7.7
      thresh= 4.903E-06 alpha_mix =  0.300 |ddv_scf|^2 =  8.323E-10

      iter #   7 total cpu time :   320.9 secs   av.it.:  10.5
      thresh= 2.885E-06 alpha_mix =  0.300 |ddv_scf|^2 =  4.356E-11

      iter #   8 total cpu time :   335.1 secs   av.it.:  10.5
      thresh= 6.600E-07 alpha_mix =  0.300 |ddv_scf|^2 =  4.949E-12

      iter #   9 total cpu time :   348.9 secs   av.it.:  10.9
      thresh= 2.225E-07 alpha_mix =  0.300 |ddv_scf|^2 =  2.479E-12

      iter #  10 total cpu time :   361.7 secs   av.it.:  10.5
      thresh= 1.574E-07 alpha_mix =  0.300 |ddv_scf|^2 =  1.989E-13

      iter #  11 total cpu time :   375.5 secs   av.it.:  10.5
      thresh= 4.460E-08 alpha_mix =  0.300 |ddv_scf|^2 =  9.915E-14

      iter #  12 total cpu time :   390.3 secs   av.it.:   9.9
      thresh= 3.149E-08 alpha_mix =  0.300 |ddv_scf|^2 =  1.613E-13

      iter #  13 total cpu time :   403.6 secs   av.it.:   9.9
      thresh= 4.016E-08 alpha_mix =  0.300 |ddv_scf|^2 =  4.666E-15

     End of self-consistent calculation

     Convergence has been achieved 


     Representation #   3 mode #   3

     Self-consistent Calculation

      iter #   1 total cpu time :   425.5 secs   av.it.:   8.2
      thresh= 1.000E-02 alpha_mix =  0.300 |ddv_scf|^2 =  4.928E-02

      iter #   2 total cpu time :   437.1 secs   av.it.:  10.7
      thresh= 1.000E-02 alpha_mix =  0.300 |ddv_scf|^2 =  5.073E+00

      iter #   3 total cpu time :   448.9 secs   av.it.:  10.6
      thresh= 1.000E-02 alpha_mix =  0.300 |ddv_scf|^2 =  6.082E-06

      iter #   4 total cpu time :   461.3 secs   av.it.:   9.1
      thresh= 2.466E-04 alpha_mix =  0.300 |ddv_scf|^2 =  4.597E-08

      iter #   5 total cpu time :   474.5 secs   av.it.:  11.9
      thresh= 2.144E-05 alpha_mix =  0.300 |ddv_scf|^2 =  8.317E-09

      iter #   6 total cpu time :   487.4 secs   av.it.:  12.4
      thresh= 9.120E-06 alpha_mix =  0.300 |ddv_scf|^2 =  1.651E-09

      iter #   7 total cpu time :   500.0 secs   av.it.:  10.9
      thresh= 4.063E-06 alpha_mix =  0.300 |ddv_scf|^2 =  3.273E-11

      iter #   8 total cpu time :   513.8 secs   av.it.:  11.8
      thresh= 5.721E-07 alpha_mix =  0.300 |ddv_scf|^2 =  1.131E-11

      iter #   9 total cpu time :   526.5 secs   av.it.:  11.3
      thresh= 3.363E-07 alpha_mix =  0.300 |ddv_scf|^2 =  4.590E-12

      iter #  10 total cpu time :   540.3 secs   av.it.:   9.9
      thresh= 2.143E-07 alpha_mix =  0.300 |ddv_scf|^2 =  3.135E-11

      iter #  11 total cpu time :   555.0 secs   av.it.:   9.2
      thresh= 5.599E-07 alpha_mix =  0.300 |ddv_scf|^2 =  4.961E-12

      iter #  12 total cpu time :   568.0 secs   av.it.:   9.2
      thresh= 2.227E-07 alpha_mix =  0.300 |ddv_scf|^2 =  3.750E-13

      iter #  13 total cpu time :   584.3 secs   av.it.:  10.7
      thresh= 6.124E-08 alpha_mix =  0.300 |ddv_scf|^2 =  4.830E-15

     End of self-consistent calculation

     Convergence has been achieved 


     Representation #   4 mode #   4

     Self-consistent Calculation

      iter #   1 total cpu time :   603.4 secs   av.it.:   5.2
      thresh= 1.000E-02 alpha_mix =  0.300 |ddv_scf|^2 =  4.223E-04

      iter #   2 total cpu time :   615.9 secs   av.it.:   9.6
      thresh= 2.055E-03 alpha_mix =  0.300 |ddv_scf|^2 =  4.347E-02

      iter #   3 total cpu time :   627.1 secs   av.it.:   7.3
      thresh= 1.000E-02 alpha_mix =  0.300 |ddv_scf|^2 =  5.427E-08

      iter #   4 total cpu time :   639.2 secs   av.it.:  10.5
      thresh= 2.330E-05 alpha_mix =  0.300 |ddv_scf|^2 =  1.084E-09

      iter #   5 total cpu time :   651.1 secs   av.it.:  12.0
      thresh= 3.292E-06 alpha_mix =  0.300 |ddv_scf|^2 =  2.404E-09

      iter #   6 total cpu time :   663.6 secs   av.it.:   7.7
      thresh= 4.903E-06 alpha_mix =  0.300 |ddv_scf|^2 =  8.323E-10

      iter #   7 total cpu time :   675.0 secs   av.it.:  10.5
      thresh= 2.885E-06 alpha_mix =  0.300 |ddv_scf|^2 =  4.356E-11

      iter #   8 total cpu time :   688.2 secs   av.it.:  10.5
      thresh= 6.600E-07 alpha_mix =  0.300 |ddv_scf|^2 =  4.949E-12

      iter #   9 total cpu time :   703.7 secs   av.it.:  10.9
      thresh= 2.225E-07 alpha_mix =  0.300 |ddv_scf|^2 =  2.479E-12

      iter #  10 total cpu time :   717.3 secs   av.it.:  10.5
      thresh= 1.574E-07 alpha_mix =  0.300 |ddv_scf|^2 =  1.989E-13

      iter #  11 total cpu time :   730.1 secs   av.it.:  10.5
      thresh= 4.460E-08 alpha_mix =  0.300 |ddv_scf|^2 =  9.915E-14

      iter #  12 total cpu time :   742.3 secs   av.it.:   9.9
      thresh= 3.149E-08 alpha_mix =  0.300 |ddv_scf|^2 =  1.613E-13

      iter #  13 total cpu time :   753.5 secs   av.it.:   9.9
      thresh= 4.016E-08 alpha_mix =  0.300 |ddv_scf|^2 =  4.666E-15

     End of self-consistent calculation

     Convergence has been achieved 


     Representation #   5 mode #   5

     Self-consistent Calculation

      iter #   1 total cpu time :   773.6 secs   av.it.:   5.6
      thresh= 1.000E-02 alpha_mix =  0.300 |ddv_scf|^2 =  7.335E-04

      iter #   2 total cpu time :   785.4 secs   av.it.:   9.6
      thresh= 2.708E-03 alpha_mix =  0.300 |ddv_scf|^2 =  7.549E-02

      iter #   3 total cpu time :   796.4 secs   av.it.:   7.7
      thresh= 1.000E-02 alpha_mix =  0.300 |ddv_scf|^2 =  1.141E-07

      iter #   4 total cpu time :   809.9 secs   av.it.:  10.4
      thresh= 3.378E-05 alpha_mix =  0.300 |ddv_scf|^2 =  3.002E-09

      iter #   5 total cpu time :   824.9 secs   av.it.:  11.9
      thresh= 5.479E-06 alpha_mix =  0.300 |ddv_scf|^2 =  1.343E-09

      iter #   6 total cpu time :   837.5 secs   av.it.:   8.6
      thresh= 3.665E-06 alpha_mix =  0.300 |ddv_scf|^2 =  2.870E-09

      iter #   7 total cpu time :   851.3 secs   av.it.:   9.7
      thresh= 5.357E-06 alpha_mix =  0.300 |ddv_scf|^2 =  2.252E-11

      iter #   8 total cpu time :   863.7 secs   av.it.:  11.4
      thresh= 4.746E-07 alpha_mix =  0.300 |ddv_scf|^2 =  4.603E-12

      iter #   9 total cpu time :   878.1 secs   av.it.:  11.9
      thresh= 2.145E-07 alpha_mix =  0.300 |ddv_scf|^2 =  4.087E-12

      iter #  10 total cpu time :   891.9 secs   av.it.:  10.1
      thresh= 2.022E-07 alpha_mix =  0.300 |ddv_scf|^2 =  2.154E-13

      iter #  11 total cpu time :   907.6 secs   av.it.:  10.9
      thresh= 4.641E-08 alpha_mix =  0.300 |ddv_scf|^2 =  4.201E-14

      iter #  12 total cpu time :   921.9 secs   av.it.:  10.6
      thresh= 2.050E-08 alpha_mix =  0.300 |ddv_scf|^2 =  3.995E-13

      iter #  13 total cpu time :   933.9 secs   av.it.:   9.6
      thresh= 6.321E-08 alpha_mix =  0.300 |ddv_scf|^2 =  1.566E-14

      iter #  14 total cpu time :   954.6 secs   av.it.:  10.9
      thresh= 1.251E-08 alpha_mix =  0.300 |ddv_scf|^2 =  6.099E-16

     End of self-consistent calculation

     Convergence has been achieved 


     Representation #   6 mode #   6

     Self-consistent Calculation

      iter #   1 total cpu time :   974.6 secs   av.it.:   5.2
      thresh= 1.000E-02 alpha_mix =  0.300 |ddv_scf|^2 =  4.124E-04

      iter #   2 total cpu time :   985.4 secs   av.it.:   9.6
      thresh= 2.031E-03 alpha_mix =  0.300 |ddv_scf|^2 =  4.245E-02

      iter #   3 total cpu time :   996.7 secs   av.it.:   7.3
      thresh= 1.000E-02 alpha_mix =  0.300 |ddv_scf|^2 =  5.773E-08

      iter #   4 total cpu time :  1008.0 secs   av.it.:  10.5
      thresh= 2.403E-05 alpha_mix =  0.300 |ddv_scf|^2 =  1.428E-09

      iter #   5 total cpu time :  1021.3 secs   av.it.:  12.0
      thresh= 3.779E-06 alpha_mix =  0.300 |ddv_scf|^2 =  1.156E-09

      iter #   6 total cpu time :  1032.8 secs   av.it.:   8.3
      thresh= 3.399E-06 alpha_mix =  0.300 |ddv_scf|^2 =  1.318E-09

      iter #   7 total cpu time :  1046.2 secs   av.it.:  10.1
      thresh= 3.631E-06 alpha_mix =  0.300 |ddv_scf|^2 =  1.326E-11

      iter #   8 total cpu time :  1059.0 secs   av.it.:  11.5
      thresh= 3.641E-07 alpha_mix =  0.300 |ddv_scf|^2 =  2.038E-12

      iter #   9 total cpu time :  1073.9 secs   av.it.:  11.4
      thresh= 1.428E-07 alpha_mix =  0.300 |ddv_scf|^2 =  4.396E-12

      iter #  10 total cpu time :  1086.3 secs   av.it.:  10.4
      thresh= 2.097E-07 alpha_mix =  0.300 |ddv_scf|^2 =  3.220E-13

      iter #  11 total cpu time :  1099.4 secs   av.it.:  10.8
      thresh= 5.675E-08 alpha_mix =  0.300 |ddv_scf|^2 =  5.044E-14

      iter #  12 total cpu time :  1111.1 secs   av.it.:  10.4
      thresh= 2.246E-08 alpha_mix =  0.300 |ddv_scf|^2 =  1.699E-13

      iter #  13 total cpu time :  1123.6 secs   av.it.:  10.4
      thresh= 4.122E-08 alpha_mix =  0.300 |ddv_scf|^2 =  1.341E-14

      iter #  14 total cpu time :  1137.4 secs   av.it.:  10.6
      thresh= 1.158E-08 alpha_mix =  0.300 |ddv_scf|^2 =  1.844E-15

     End of self-consistent calculation

     Convergence has been achieved 


     Representation #   7 mode #   7

     Self-consistent Calculation

      iter #   1 total cpu time :  1157.9 secs   av.it.:   5.1
      thresh= 1.000E-02 alpha_mix =  0.300 |ddv_scf|^2 =  8.380E-05

      iter #   2 total cpu time :  1169.9 secs   av.it.:   9.6
      thresh= 9.154E-04 alpha_mix =  0.300 |ddv_scf|^2 =  8.609E-03

      iter #   3 total cpu time :  1180.5 secs   av.it.:   6.3
      thresh= 9.278E-03 alpha_mix =  0.300 |ddv_scf|^2 =  2.965E-08

      iter #   4 total cpu time :  1192.8 secs   av.it.:  11.2
      thresh= 1.722E-05 alpha_mix =  0.300 |ddv_scf|^2 =  3.467E-09

      iter #   5 total cpu time :  1206.4 secs   av.it.:  11.8
      thresh= 5.888E-06 alpha_mix =  0.300 |ddv_scf|^2 =  4.875E-10

      iter #   6 total cpu time :  1222.2 secs   av.it.:  10.5
      thresh= 2.208E-06 alpha_mix =  0.300 |ddv_scf|^2 =  5.702E-09

      iter #   7 total cpu time :  1234.9 secs   av.it.:   8.0
      thresh= 7.551E-06 alpha_mix =  0.300 |ddv_scf|^2 =  1.801E-10

      iter #   8 total cpu time :  1246.5 secs   av.it.:   8.3
      thresh= 1.342E-06 alpha_mix =  0.300 |ddv_scf|^2 =  2.176E-11

      iter #   9 total cpu time :  1258.3 secs   av.it.:  11.1
      thresh= 4.664E-07 alpha_mix =  0.300 |ddv_scf|^2 =  5.971E-12

      iter #  10 total cpu time :  1273.1 secs   av.it.:  10.5
      thresh= 2.444E-07 alpha_mix =  0.300 |ddv_scf|^2 =  4.451E-13

      iter #  11 total cpu time :  1286.2 secs   av.it.:  10.9
      thresh= 6.672E-08 alpha_mix =  0.300 |ddv_scf|^2 =  2.232E-14

      iter #  12 total cpu time :  1299.8 secs   av.it.:  11.9
      thresh= 1.494E-08 alpha_mix =  0.300 |ddv_scf|^2 =  3.011E-14

      iter #  13 total cpu time :  1314.0 secs   av.it.:  10.1
      thresh= 1.735E-08 alpha_mix =  0.300 |ddv_scf|^2 =  8.136E-14

      iter #  14 total cpu time :  1326.2 secs   av.it.:   9.0
      thresh= 2.852E-08 alpha_mix =  0.300 |ddv_scf|^2 =  1.359E-14

      iter #  15 total cpu time :  1339.5 secs   av.it.:   9.4
      thresh= 1.166E-08 alpha_mix =  0.300 |ddv_scf|^2 =  8.134E-16

     End of self-consistent calculation

     Convergence has been achieved 


     Representation #   8 mode #   8

     Self-consistent Calculation

      iter #   1 total cpu time :  1359.5 secs   av.it.:   5.2
      thresh= 1.000E-02 alpha_mix =  0.300 |ddv_scf|^2 =  4.124E-04

      iter #   2 total cpu time :  1372.1 secs   av.it.:   9.6
      thresh= 2.031E-03 alpha_mix =  0.300 |ddv_scf|^2 =  4.245E-02

      iter #   3 total cpu time :  1385.0 secs   av.it.:   7.3
      thresh= 1.000E-02 alpha_mix =  0.300 |ddv_scf|^2 =  5.773E-08

      iter #   4 total cpu time :  1400.1 secs   av.it.:  10.5
      thresh= 2.403E-05 alpha_mix =  0.300 |ddv_scf|^2 =  1.428E-09

      iter #   5 total cpu time :  1414.0 secs   av.it.:  12.0
      thresh= 3.779E-06 alpha_mix =  0.300 |ddv_scf|^2 =  1.156E-09

      iter #   6 total cpu time :  1425.3 secs   av.it.:   8.3
      thresh= 3.399E-06 alpha_mix =  0.300 |ddv_scf|^2 =  1.318E-09

      iter #   7 total cpu time :  1437.6 secs   av.it.:  10.1
      thresh= 3.631E-06 alpha_mix =  0.300 |ddv_scf|^2 =  1.326E-11

      iter #   8 total cpu time :  1450.5 secs   av.it.:  11.5
      thresh= 3.641E-07 alpha_mix =  0.300 |ddv_scf|^2 =  2.038E-12

      iter #   9 total cpu time :  1465.4 secs   av.it.:  11.4
      thresh= 1.428E-07 alpha_mix =  0.300 |ddv_scf|^2 =  4.396E-12

      iter #  10 total cpu time :  1478.7 secs   av.it.:  10.4
      thresh= 2.097E-07 alpha_mix =  0.300 |ddv_scf|^2 =  3.220E-13

      iter #  11 total cpu time :  1490.7 secs   av.it.:  10.8
      thresh= 5.675E-08 alpha_mix =  0.300 |ddv_scf|^2 =  5.044E-14

      iter #  12 total cpu time :  1502.4 secs   av.it.:  10.4
      thresh= 2.246E-08 alpha_mix =  0.300 |ddv_scf|^2 =  1.699E-13

      iter #  13 total cpu time :  1515.1 secs   av.it.:  10.4
      thresh= 4.122E-08 alpha_mix =  0.300 |ddv_scf|^2 =  1.341E-14

      iter #  14 total cpu time :  1526.9 secs   av.it.:  10.6
      thresh= 1.158E-08 alpha_mix =  0.300 |ddv_scf|^2 =  1.844E-15

     End of self-consistent calculation

     Convergence has been achieved 


     Representation #   9 mode #   9

     Self-consistent Calculation

      iter #   1 total cpu time :  1546.4 secs   av.it.:   5.5
      thresh= 1.000E-02 alpha_mix =  0.300 |ddv_scf|^2 =  5.237E-04

      iter #   2 total cpu time :  1561.8 secs   av.it.:   9.6
      thresh= 2.288E-03 alpha_mix =  0.300 |ddv_scf|^2 =  5.388E-02

      iter #   3 total cpu time :  1574.0 secs   av.it.:   7.4
      thresh= 1.000E-02 alpha_mix =  0.300 |ddv_scf|^2 =  1.051E-07

      iter #   4 total cpu time :  1588.8 secs   av.it.:  10.4
      thresh= 3.242E-05 alpha_mix =  0.300 |ddv_scf|^2 =  2.696E-09

      iter #   5 total cpu time :  1600.6 secs   av.it.:  11.9
      thresh= 5.192E-06 alpha_mix =  0.300 |ddv_scf|^2 =  4.956E-10

      iter #   6 total cpu time :  1613.6 secs   av.it.:   9.6
      thresh= 2.226E-06 alpha_mix =  0.300 |ddv_scf|^2 =  4.886E-09

      iter #   7 total cpu time :  1626.1 secs   av.it.:   9.2
      thresh= 6.990E-06 alpha_mix =  0.300 |ddv_scf|^2 =  2.058E-11

      iter #   8 total cpu time :  1638.2 secs   av.it.:  11.0
      thresh= 4.536E-07 alpha_mix =  0.300 |ddv_scf|^2 =  8.450E-12

      iter #   9 total cpu time :  1650.7 secs   av.it.:  11.3
      thresh= 2.907E-07 alpha_mix =  0.300 |ddv_scf|^2 =  1.582E-11

      iter #  10 total cpu time :  1663.8 secs   av.it.:   8.4
      thresh= 3.977E-07 alpha_mix =  0.300 |ddv_scf|^2 =  9.346E-13

      iter #  11 total cpu time :  1677.0 secs   av.it.:  10.4
      thresh= 9.667E-08 alpha_mix =  0.300 |ddv_scf|^2 =  3.050E-14

      iter #  12 total cpu time :  1692.3 secs   av.it.:  11.2
      thresh= 1.747E-08 alpha_mix =  0.300 |ddv_scf|^2 =  3.574E-13

      iter #  13 total cpu time :  1704.3 secs   av.it.:   9.2
      thresh= 5.978E-08 alpha_mix =  0.300 |ddv_scf|^2 =  9.088E-15

     End of self-consistent calculation

     Convergence has been achieved 


     Representation #  10 mode #  10

     Self-consistent Calculation

      iter #   1 total cpu time :  1727.5 secs   av.it.:   4.1
      thresh= 1.000E-02 alpha_mix =  0.300 |ddv_scf|^2 =  1.617E-09

      iter #   2 total cpu time :  1739.4 secs   av.it.:  11.9
      thresh= 4.021E-06 alpha_mix =  0.300 |ddv_scf|^2 =  7.360E-10

      iter #   3 total cpu time :  1755.6 secs   av.it.:  12.1
      thresh= 2.713E-06 alpha_mix =  0.300 |ddv_scf|^2 =  4.103E-12

      iter #   4 total cpu time :  1768.9 secs   av.it.:  11.9
      thresh= 2.026E-07 alpha_mix =  0.300 |ddv_scf|^2 =  1.650E-13

      iter #   5 total cpu time :  1782.9 secs   av.it.:  11.5
      thresh= 4.062E-08 alpha_mix =  0.300 |ddv_scf|^2 =  7.650E-15

     End of self-consistent calculation

     Convergence has been achieved 


     Representation #  11 mode #  11

     Self-consistent Calculation

      iter #   1 total cpu time :  1802.6 secs   av.it.:   4.1
      thresh= 1.000E-02 alpha_mix =  0.300 |ddv_scf|^2 =  1.617E-09

      iter #   2 total cpu time :  1812.5 secs   av.it.:  11.9
      thresh= 4.021E-06 alpha_mix =  0.300 |ddv_scf|^2 =  7.360E-10

      iter #   3 total cpu time :  1824.4 secs   av.it.:  12.1
      thresh= 2.713E-06 alpha_mix =  0.300 |ddv_scf|^2 =  4.103E-12

      iter #   4 total cpu time :  1835.4 secs   av.it.:  11.9
      thresh= 2.026E-07 alpha_mix =  0.300 |ddv_scf|^2 =  1.650E-13

      iter #   5 total cpu time :  1847.2 secs   av.it.:  11.5
      thresh= 4.062E-08 alpha_mix =  0.300 |ddv_scf|^2 =  7.650E-15

     End of self-consistent calculation

     Convergence has been achieved 


     Representation #  12 modes #  12  13

     Self-consistent Calculation

      iter #   1 total cpu time :  1873.7 secs   av.it.:   4.3
      thresh= 1.000E-02 alpha_mix =  0.300 |ddv_scf|^2 =  1.890E-09

      iter #   2 total cpu time :  1895.7 secs   av.it.:  12.9
      thresh= 4.348E-06 alpha_mix =  0.300 |ddv_scf|^2 =  4.733E-10

      iter #   3 total cpu time :  1913.7 secs   av.it.:  13.5
      thresh= 2.175E-06 alpha_mix =  0.300 |ddv_scf|^2 =  2.741E-11

      iter #   4 total cpu time :  1933.1 secs   av.it.:  13.5
      thresh= 5.235E-07 alpha_mix =  0.300 |ddv_scf|^2 =  1.723E-12

      iter #   5 total cpu time :  1953.6 secs   av.it.:  13.4
      thresh= 1.313E-07 alpha_mix =  0.300 |ddv_scf|^2 =  2.495E-13

      iter #   6 total cpu time :  1973.3 secs   av.it.:  13.7
      thresh= 4.995E-08 alpha_mix =  0.300 |ddv_scf|^2 =  1.588E-14

      iter #   7 total cpu time :  1992.4 secs   av.it.:  13.6
      thresh= 1.260E-08 alpha_mix =  0.300 |ddv_scf|^2 =  6.022E-16

     End of self-consistent calculation

     Convergence has been achieved 


     Representation #  13 modes #  14  15

     Self-consistent Calculation

      iter #   1 total cpu time :  2023.8 secs   av.it.:   5.0
      thresh= 1.000E-02 alpha_mix =  0.300 |ddv_scf|^2 =  1.169E-08

      iter #   2 total cpu time :  2042.4 secs   av.it.:  12.6
      thresh= 1.081E-05 alpha_mix =  0.300 |ddv_scf|^2 =  2.302E-09

      iter #   3 total cpu time :  2062.5 secs   av.it.:  13.4
      thresh= 4.797E-06 alpha_mix =  0.300 |ddv_scf|^2 =  6.004E-11

      iter #   4 total cpu time :  2081.0 secs   av.it.:  13.5
      thresh= 7.749E-07 alpha_mix =  0.300 |ddv_scf|^2 =  3.532E-12

      iter #   5 total cpu time :  2100.9 secs   av.it.:  13.7
      thresh= 1.879E-07 alpha_mix =  0.300 |ddv_scf|^2 =  2.897E-13

      iter #   6 total cpu time :  2120.7 secs   av.it.:  13.4
      thresh= 5.382E-08 alpha_mix =  0.300 |ddv_scf|^2 =  3.974E-14

      iter #   7 total cpu time :  2142.6 secs   av.it.:  13.4
      thresh= 1.993E-08 alpha_mix =  0.300 |ddv_scf|^2 =  1.394E-15

     End of self-consistent calculation

     Convergence has been achieved 


     Representation #  14 modes #  16  17

     Self-consistent Calculation

      iter #   1 total cpu time :  2171.3 secs   av.it.:   4.7
      thresh= 1.000E-02 alpha_mix =  0.300 |ddv_scf|^2 =  7.641E-09

      iter #   2 total cpu time :  2189.5 secs   av.it.:  12.6
      thresh= 8.741E-06 alpha_mix =  0.300 |ddv_scf|^2 =  1.525E-09

      iter #   3 total cpu time :  2209.7 secs   av.it.:  13.4
      thresh= 3.906E-06 alpha_mix =  0.300 |ddv_scf|^2 =  4.624E-11

      iter #   4 total cpu time :  2228.4 secs   av.it.:  13.5
      thresh= 6.800E-07 alpha_mix =  0.300 |ddv_scf|^2 =  3.187E-12

      iter #   5 total cpu time :  2247.4 secs   av.it.:  13.5
      thresh= 1.785E-07 alpha_mix =  0.300 |ddv_scf|^2 =  2.675E-13

      iter #   6 total cpu time :  2265.9 secs   av.it.:  13.4
      thresh= 5.172E-08 alpha_mix =  0.300 |ddv_scf|^2 =  3.005E-14

      iter #   7 total cpu time :  2284.7 secs   av.it.:  13.5
      thresh= 1.733E-08 alpha_mix =  0.300 |ddv_scf|^2 =  1.016E-15

     End of self-consistent calculation

     Convergence has been achieved 


     Representation #  15 modes #  18  19

     Self-consistent Calculation

      iter #   1 total cpu time :  2314.6 secs   av.it.:   4.7
      thresh= 1.000E-02 alpha_mix =  0.300 |ddv_scf|^2 =  7.087E-09

      iter #   2 total cpu time :  2335.3 secs   av.it.:  12.5
      thresh= 8.419E-06 alpha_mix =  0.300 |ddv_scf|^2 =  1.459E-09

      iter #   3 total cpu time :  2353.2 secs   av.it.:  13.4
      thresh= 3.820E-06 alpha_mix =  0.300 |ddv_scf|^2 =  3.680E-11

      iter #   4 total cpu time :  2374.3 secs   av.it.:  13.5
      thresh= 6.066E-07 alpha_mix =  0.300 |ddv_scf|^2 =  3.043E-12

      iter #   5 total cpu time :  2393.5 secs   av.it.:  13.4
      thresh= 1.745E-07 alpha_mix =  0.300 |ddv_scf|^2 =  2.665E-13

      iter #   6 total cpu time :  2412.4 secs   av.it.:  13.4
      thresh= 5.162E-08 alpha_mix =  0.300 |ddv_scf|^2 =  2.603E-14

      iter #   7 total cpu time :  2431.0 secs   av.it.:  13.6
      thresh= 1.613E-08 alpha_mix =  0.300 |ddv_scf|^2 =  4.720E-16

     End of self-consistent calculation

     Convergence has been achieved 


     Representation #  16 modes #  20  21

     Self-consistent Calculation

      iter #   1 total cpu time :  2459.9 secs   av.it.:   4.7
      thresh= 1.000E-02 alpha_mix =  0.300 |ddv_scf|^2 =  7.086E-09

      iter #   2 total cpu time :  2481.4 secs   av.it.:  12.6
      thresh= 8.418E-06 alpha_mix =  0.300 |ddv_scf|^2 =  1.459E-09

      iter #   3 total cpu time :  2503.7 secs   av.it.:  13.5
      thresh= 3.820E-06 alpha_mix =  0.300 |ddv_scf|^2 =  3.679E-11

      iter #   4 total cpu time :  2524.0 secs   av.it.:  13.6
      thresh= 6.065E-07 alpha_mix =  0.300 |ddv_scf|^2 =  3.022E-12

      iter #   5 total cpu time :  2544.6 secs   av.it.:  13.4
      thresh= 1.738E-07 alpha_mix =  0.300 |ddv_scf|^2 =  2.740E-13

      iter #   6 total cpu time :  2564.5 secs   av.it.:  13.5
      thresh= 5.234E-08 alpha_mix =  0.300 |ddv_scf|^2 =  2.615E-14

      iter #   7 total cpu time :  2583.1 secs   av.it.:  13.7
      thresh= 1.617E-08 alpha_mix =  0.300 |ddv_scf|^2 =  4.719E-16

     End of self-consistent calculation

     Convergence has been achieved 


     Representation #  17 modes #  22  23

     Self-consistent Calculation

      iter #   1 total cpu time :  2612.7 secs   av.it.:   4.2
      thresh= 1.000E-02 alpha_mix =  0.300 |ddv_scf|^2 =  9.246E-10

      iter #   2 total cpu time :  2632.9 secs   av.it.:  13.1
      thresh= 3.041E-06 alpha_mix =  0.300 |ddv_scf|^2 =  2.647E-10

      iter #   3 total cpu time :  2651.6 secs   av.it.:  13.4
      thresh= 1.627E-06 alpha_mix =  0.300 |ddv_scf|^2 =  1.990E-11

      iter #   4 total cpu time :  2671.4 secs   av.it.:  13.4
      thresh= 4.461E-07 alpha_mix =  0.300 |ddv_scf|^2 =  8.710E-13

      iter #   5 total cpu time :  2690.8 secs   av.it.:  13.5
      thresh= 9.333E-08 alpha_mix =  0.300 |ddv_scf|^2 =  1.432E-13

      iter #   6 total cpu time :  2711.2 secs   av.it.:  13.5
      thresh= 3.784E-08 alpha_mix =  0.300 |ddv_scf|^2 =  1.181E-14

      iter #   7 total cpu time :  2731.2 secs   av.it.:  13.7
      thresh= 1.087E-08 alpha_mix =  0.300 |ddv_scf|^2 =  2.305E-16

     End of self-consistent calculation

     Convergence has been achieved 


     Representation #  18 modes #  24  25

     Self-consistent Calculation

      iter #   1 total cpu time :  2761.5 secs   av.it.:   4.8
      thresh= 1.000E-02 alpha_mix =  0.300 |ddv_scf|^2 =  6.346E-09

      iter #   2 total cpu time :  2782.3 secs   av.it.:  12.6
      thresh= 7.966E-06 alpha_mix =  0.300 |ddv_scf|^2 =  1.435E-09

      iter #   3 total cpu time :  2802.6 secs   av.it.:  13.5
      thresh= 3.788E-06 alpha_mix =  0.300 |ddv_scf|^2 =  4.726E-11

      iter #   4 total cpu time :  2824.3 secs   av.it.:  13.5
      thresh= 6.875E-07 alpha_mix =  0.300 |ddv_scf|^2 =  3.010E-12

      iter #   5 total cpu time :  2845.9 secs   av.it.:  13.6
      thresh= 1.735E-07 alpha_mix =  0.300 |ddv_scf|^2 =  3.211E-13

      iter #   6 total cpu time :  2863.1 secs   av.it.:  13.5
      thresh= 5.666E-08 alpha_mix =  0.300 |ddv_scf|^2 =  3.076E-14

      iter #   7 total cpu time :  2880.6 secs   av.it.:  13.3
      thresh= 1.754E-08 alpha_mix =  0.300 |ddv_scf|^2 =  1.370E-15

     End of self-consistent calculation

     Convergence has been achieved 


     Representation #  19 modes #  26  27

     Self-consistent Calculation

      iter #   1 total cpu time :  2913.7 secs   av.it.:   4.6
      thresh= 1.000E-02 alpha_mix =  0.300 |ddv_scf|^2 =  3.939E-09

      iter #   2 total cpu time :  2932.2 secs   av.it.:  12.7
      thresh= 6.276E-06 alpha_mix =  0.300 |ddv_scf|^2 =  9.940E-10

      iter #   3 total cpu time :  2950.9 secs   av.it.:  13.5
      thresh= 3.153E-06 alpha_mix =  0.300 |ddv_scf|^2 =  3.700E-11

      iter #   4 total cpu time :  2972.9 secs   av.it.:  13.5
      thresh= 6.083E-07 alpha_mix =  0.300 |ddv_scf|^2 =  2.437E-12

      iter #   5 total cpu time :  2993.6 secs   av.it.:  13.5
      thresh= 1.561E-07 alpha_mix =  0.300 |ddv_scf|^2 =  2.686E-13

      iter #   6 total cpu time :  3012.5 secs   av.it.:  13.6
      thresh= 5.183E-08 alpha_mix =  0.300 |ddv_scf|^2 =  2.638E-14

      iter #   7 total cpu time :  3032.1 secs   av.it.:  13.5
      thresh= 1.624E-08 alpha_mix =  0.300 |ddv_scf|^2 =  1.095E-15

     End of self-consistent calculation

     Convergence has been achieved 


     Representation #  20 modes #  28  29

     Self-consistent Calculation

      iter #   1 total cpu time :  3060.6 secs   av.it.:   4.7
      thresh= 1.000E-02 alpha_mix =  0.300 |ddv_scf|^2 =  7.639E-09

      iter #   2 total cpu time :  3078.6 secs   av.it.:  12.5
      thresh= 8.740E-06 alpha_mix =  0.300 |ddv_scf|^2 =  1.526E-09

      iter #   3 total cpu time :  3098.0 secs   av.it.:  13.3
      thresh= 3.906E-06 alpha_mix =  0.300 |ddv_scf|^2 =  4.622E-11

      iter #   4 total cpu time :  3116.9 secs   av.it.:  13.3
      thresh= 6.798E-07 alpha_mix =  0.300 |ddv_scf|^2 =  3.192E-12

      iter #   5 total cpu time :  3137.8 secs   av.it.:  13.4
      thresh= 1.787E-07 alpha_mix =  0.300 |ddv_scf|^2 =  2.723E-13

      iter #   6 total cpu time :  3157.7 secs   av.it.:  13.3
      thresh= 5.218E-08 alpha_mix =  0.300 |ddv_scf|^2 =  3.011E-14

      iter #   7 total cpu time :  3174.8 secs   av.it.:  13.4
      thresh= 1.735E-08 alpha_mix =  0.300 |ddv_scf|^2 =  1.016E-15

     End of self-consistent calculation

     Convergence has been achieved 


     Representation #  21 modes #  30  31

     Self-consistent Calculation

      iter #   1 total cpu time :  3203.5 secs   av.it.:   4.8
      thresh= 1.000E-02 alpha_mix =  0.300 |ddv_scf|^2 =  8.287E-09

      iter #   2 total cpu time :  3223.5 secs   av.it.:  12.6
      thresh= 9.103E-06 alpha_mix =  0.300 |ddv_scf|^2 =  1.660E-09

      iter #   3 total cpu time :  3242.3 secs   av.it.:  13.4
      thresh= 4.074E-06 alpha_mix =  0.300 |ddv_scf|^2 =  4.948E-11

      iter #   4 total cpu time :  3262.3 secs   av.it.:  13.5
      thresh= 7.034E-07 alpha_mix =  0.300 |ddv_scf|^2 =  3.139E-12

      iter #   5 total cpu time :  3282.7 secs   av.it.:  13.6
      thresh= 1.772E-07 alpha_mix =  0.300 |ddv_scf|^2 =  2.547E-13

      iter #   6 total cpu time :  3301.8 secs   av.it.:  13.5
      thresh= 5.047E-08 alpha_mix =  0.300 |ddv_scf|^2 =  3.432E-14

      iter #   7 total cpu time :  3320.5 secs   av.it.:  13.5
      thresh= 1.852E-08 alpha_mix =  0.300 |ddv_scf|^2 =  9.817E-16

     End of self-consistent calculation

     Convergence has been achieved 


     Representation #  22 modes #  32  33

     Self-consistent Calculation

      iter #   1 total cpu time :  3349.1 secs   av.it.:   7.0
      thresh= 1.000E-02 alpha_mix =  0.300 |ddv_scf|^2 =  2.302E-07

      iter #   2 total cpu time :  3367.1 secs   av.it.:  12.4
      thresh= 4.798E-05 alpha_mix =  0.300 |ddv_scf|^2 =  4.927E-08

      iter #   3 total cpu time :  3386.7 secs   av.it.:  13.1
      thresh= 2.220E-05 alpha_mix =  0.300 |ddv_scf|^2 =  4.515E-09

      iter #   4 total cpu time :  3406.9 secs   av.it.:  13.5
      thresh= 6.720E-06 alpha_mix =  0.300 |ddv_scf|^2 =  9.398E-11

      iter #   5 total cpu time :  3426.9 secs   av.it.:  13.2
      thresh= 9.694E-07 alpha_mix =  0.300 |ddv_scf|^2 =  5.650E-12

      iter #   6 total cpu time :  3448.4 secs   av.it.:  12.5
      thresh= 2.377E-07 alpha_mix =  0.300 |ddv_scf|^2 =  1.355E-12

      iter #   7 total cpu time :  3467.1 secs   av.it.:  13.4
      thresh= 1.164E-07 alpha_mix =  0.300 |ddv_scf|^2 =  1.126E-14

      iter #   8 total cpu time :  3485.7 secs   av.it.:  12.2
      thresh= 1.061E-08 alpha_mix =  0.300 |ddv_scf|^2 =  4.674E-15

     End of self-consistent calculation

     Convergence has been achieved 
 
     Number of q in the star =    8
     List of q in the star:
          1   0.117851130   0.117851130  -0.117851130
          2   0.117851130  -0.117851130  -0.117851130
          3   0.117851130   0.117851130   0.117851130
          4  -0.117851130  -0.117851130   0.117851130
          5  -0.117851130   0.117851130  -0.117851130
          6  -0.117851130  -0.117851130  -0.117851130
          7  -0.117851130   0.117851130   0.117851130
          8   0.117851130  -0.117851130   0.117851130

     Diagonalizing the dynamical matrix

     q = (    0.117851130   0.117851130  -0.117851130 ) 

 **************************************************************************
     freq (    1) =       3.526555 [THz] =     117.633207 [cm-1]
     freq (    2) =       3.526555 [THz] =     117.633207 [cm-1]
     freq (    3) =       5.869376 [THz] =     195.781298 [cm-1]
     freq (    4) =      23.274612 [THz] =     776.357475 [cm-1]
     freq (    5) =      24.691606 [THz] =     823.623328 [cm-1]
     freq (    6) =      24.691606 [THz] =     823.623328 [cm-1]
     freq (    7) =      30.090620 [THz] =    1003.715039 [cm-1]
     freq (    8) =      30.395449 [THz] =    1013.883045 [cm-1]
     freq (    9) =      30.395449 [THz] =    1013.883045 [cm-1]
     freq (   10) =      32.074917 [THz] =    1069.904052 [cm-1]
     freq (   11) =      32.074917 [THz] =    1069.904052 [cm-1]
     freq (   12) =      34.684688 [THz] =    1156.956660 [cm-1]
     freq (   13) =      36.133965 [THz] =    1205.299343 [cm-1]
     freq (   14) =      36.133965 [THz] =    1205.299343 [cm-1]
     freq (   15) =      37.611699 [THz] =    1254.591248 [cm-1]
     freq (   16) =      38.270102 [THz] =    1276.553196 [cm-1]
     freq (   17) =      39.113625 [THz] =    1304.690105 [cm-1]
     freq (   18) =      39.113625 [THz] =    1304.690105 [cm-1]
     freq (   19) =      41.102298 [THz] =    1371.025077 [cm-1]
     freq (   20) =      42.101795 [THz] =    1404.364714 [cm-1]
     freq (   21) =      42.101795 [THz] =    1404.364714 [cm-1]
     freq (   22) =      43.184459 [THz] =    1440.478493 [cm-1]
     freq (   23) =      43.184459 [THz] =    1440.478493 [cm-1]
     freq (   24) =      46.922587 [THz] =    1565.169037 [cm-1]
     freq (   25) =      46.922587 [THz] =    1565.169037 [cm-1]
     freq (   26) =      51.700885 [THz] =    1724.555879 [cm-1]
     freq (   27) =      52.156426 [THz] =    1739.751089 [cm-1]
     freq (   28) =      52.156426 [THz] =    1739.751089 [cm-1]
     freq (   29) =      53.207476 [THz] =    1774.810348 [cm-1]
     freq (   30) =      53.207476 [THz] =    1774.810348 [cm-1]
     freq (   31) =      53.631667 [THz] =    1788.959840 [cm-1]
     freq (   32) =      56.486851 [THz] =    1884.198527 [cm-1]
     freq (   33) =      66.295226 [THz] =    2211.370719 [cm-1]
 **************************************************************************

     Mode symmetry, C_3v (3m)   point group:

     freq (   1-   2) =        117.6  [cm-1]   --> E    L_3           
     freq (   3-   3) =        195.8  [cm-1]   --> A_1  L_1           
     freq (   4-   4) =        776.4  [cm-1]   --> A_1  L_1           
     freq (   5-   6) =        823.6  [cm-1]   --> E    L_3           
     freq (   7-   7) =       1003.7  [cm-1]   --> A_1  L_1           
     freq (   8-   9) =       1013.9  [cm-1]   --> E    L_3           
     freq (  10-  11) =       1069.9  [cm-1]   --> E    L_3           
     freq (  12-  12) =       1157.0  [cm-1]   --> A_1  L_1           
     freq (  13-  14) =       1205.3  [cm-1]   --> E    L_3           
     freq (  15-  15) =       1254.6  [cm-1]   --> A_1  L_1           
     freq (  16-  16) =       1276.6  [cm-1]   --> A_2  L_2           
     freq (  17-  18) =       1304.7  [cm-1]   --> E    L_3           
     freq (  19-  19) =       1371.0  [cm-1]   --> A_2  L_2           
     freq (  20-  21) =       1404.4  [cm-1]   --> E    L_3           
     freq (  22-  23) =       1440.5  [cm-1]   --> E    L_3           
     freq (  24-  25) =       1565.2  [cm-1]   --> E    L_3           
     freq (  26-  26) =       1724.6  [cm-1]   --> A_1  L_1           
     freq (  27-  28) =       1739.8  [cm-1]   --> E    L_3           
     freq (  29-  30) =       1774.8  [cm-1]   --> E    L_3           
     freq (  31-  31) =       1789.0  [cm-1]   --> A_1  L_1           
     freq (  32-  32) =       1884.2  [cm-1]   --> A_1  L_1           
     freq (  33-  33) =       2211.4  [cm-1]   --> A_1  L_1           
     Electron-phonon interaction  ...

     Gaussian Broadening:   0.005 Ry, ngauss=   0
     DOS =  5.706849 states/spin/Ry/Unit Cell at Ef= 20.445499 eV
     lambda(    1)=  0.0563   gamma=    3.81 GHz
     lambda(    2)=  0.0528   gamma=    3.58 GHz
     lambda(    3)=  0.0903   gamma=   16.95 GHz
     lambda(    4)=  0.1015   gamma=  299.76 GHz
     lambda(    5)=  0.0616   gamma=  204.60 GHz
     lambda(    6)=  0.0517   gamma=  171.74 GHz
     lambda(    7)=  0.0206   gamma=  101.64 GHz
     lambda(    8)=  0.0126   gamma=   63.49 GHz
     lambda(    9)=  0.0119   gamma=   60.10 GHz
     lambda(   10)=  0.0275   gamma=  154.02 GHz
     lambda(   11)=  0.0264   gamma=  148.11 GHz
     lambda(   12)=  0.0426   gamma=  279.01 GHz
     lambda(   13)=  0.0097   gamma=   68.82 GHz
     lambda(   14)=  0.0094   gamma=   66.67 GHz
     lambda(   15)=  0.0523   gamma=  403.36 GHz
     lambda(   16)=  0.0599   gamma=  478.20 GHz
     lambda(   17)=  0.0269   gamma=  224.34 GHz
     lambda(   18)=  0.0277   gamma=  230.72 GHz
     lambda(   19)=  0.0019   gamma=   17.76 GHz
     lambda(   20)=  0.0023   gamma=   22.11 GHz
     lambda(   21)=  0.0023   gamma=   22.12 GHz
     lambda(   22)=  0.0056   gamma=   56.69 GHz
     lambda(   23)=  0.0054   gamma=   55.04 GHz
     lambda(   24)=  0.0569   gamma=  683.14 GHz
     lambda(   25)=  0.0507   gamma=  608.24 GHz
     lambda(   26)=  0.0088   gamma=  127.77 GHz
     lambda(   27)=  0.0036   gamma=   53.29 GHz
     lambda(   28)=  0.0038   gamma=   55.69 GHz
     lambda(   29)=  0.0073   gamma=  112.99 GHz
     lambda(   30)=  0.0073   gamma=  112.02 GHz
     lambda(   31)=  0.0102   gamma=  160.38 GHz
     lambda(   32)=  0.0038   gamma=   66.71 GHz
     lambda(   33)=  0.0794   gamma= 1902.58 GHz
     Gaussian Broadening:   0.010 Ry, ngauss=   0
     DOS =  5.493178 states/spin/Ry/Unit Cell at Ef= 20.444376 eV
     lambda(    1)=  0.0966   gamma=    6.30 GHz
     lambda(    2)=  0.0942   gamma=    6.15 GHz
     lambda(    3)=  0.0989   gamma=   17.87 GHz
     lambda(    4)=  0.1514   gamma=  430.15 GHz
     lambda(    5)=  0.1091   gamma=  349.06 GHz
     lambda(    6)=  0.0954   gamma=  305.07 GHz
     lambda(    7)=  0.0272   gamma=  129.21 GHz
     lambda(    8)=  0.0270   gamma=  130.90 GHz
     lambda(    9)=  0.0261   gamma=  126.64 GHz
     lambda(   10)=  0.0526   gamma=  283.64 GHz
     lambda(   11)=  0.0539   gamma=  290.74 GHz
     lambda(   12)=  0.0567   gamma=  357.84 GHz
     lambda(   13)=  0.0188   gamma=  128.96 GHz
     lambda(   14)=  0.0182   gamma=  124.94 GHz
     lambda(   15)=  0.0430   gamma=  318.99 GHz
     lambda(   16)=  0.0637   gamma=  489.08 GHz
     lambda(   17)=  0.0424   gamma=  340.02 GHz
     lambda(   18)=  0.0440   gamma=  353.12 GHz
     lambda(   19)=  0.0030   gamma=   26.22 GHz
     lambda(   20)=  0.0070   gamma=   64.90 GHz
     lambda(   21)=  0.0071   gamma=   66.22 GHz
     lambda(   22)=  0.0106   gamma=  103.66 GHz
     lambda(   23)=  0.0102   gamma=   99.77 GHz
     lambda(   24)=  0.1092   gamma= 1261.53 GHz
     lambda(   25)=  0.1032   gamma= 1192.05 GHz
     lambda(   26)=  0.0194   gamma=  271.34 GHz
     lambda(   27)=  0.0069   gamma=   98.14 GHz
     lambda(   28)=  0.0068   gamma=   97.11 GHz
     lambda(   29)=  0.0073   gamma=  108.91 GHz
     lambda(   30)=  0.0074   gamma=  109.30 GHz
     lambda(   31)=  0.0076   gamma=  114.86 GHz
     lambda(   32)=  0.0056   gamma=   93.95 GHz
     lambda(   33)=  0.0374   gamma=  863.14 GHz
     Gaussian Broadening:   0.015 Ry, ngauss=   0
     DOS =  5.643591 states/spin/Ry/Unit Cell at Ef= 20.442941 eV
     lambda(    1)=  0.1127   gamma=    7.56 GHz
     lambda(    2)=  0.1139   gamma=    7.63 GHz
     lambda(    3)=  0.1023   gamma=   19.00 GHz
     lambda(    4)=  0.1901   gamma=  555.11 GHz
     lambda(    5)=  0.1293   gamma=  424.92 GHz
     lambda(    6)=  0.1194   gamma=  392.22 GHz
     lambda(    7)=  0.0303   gamma=  147.63 GHz
     lambda(    8)=  0.0306   gamma=  152.25 GHz
     lambda(    9)=  0.0304   gamma=  151.15 GHz
     lambda(   10)=  0.0653   gamma=  361.96 GHz
     lambda(   11)=  0.0672   gamma=  372.39 GHz
     lambda(   12)=  0.0596   gamma=  386.20 GHz
     lambda(   13)=  0.0265   gamma=  186.58 GHz
     lambda(   14)=  0.0262   gamma=  184.12 GHz
     lambda(   15)=  0.0415   gamma=  316.09 GHz
     lambda(   16)=  0.0735   gamma=  580.43 GHz
     lambda(   17)=  0.0530   gamma=  436.91 GHz
     lambda(   18)=  0.0547   gamma=  450.85 GHz
     lambda(   19)=  0.0036   gamma=   33.04 GHz
     lambda(   20)=  0.0100   gamma=   95.54 GHz
     lambda(   21)=  0.0102   gamma=   97.67 GHz
     lambda(   22)=  0.0117   gamma=  118.05 GHz
     lambda(   23)=  0.0115   gamma=  115.28 GHz
     lambda(   24)=  0.1184   gamma= 1404.62 GHz
     lambda(   25)=  0.1152   gamma= 1367.21 GHz
     lambda(   26)=  0.0229   gamma=  330.26 GHz
     lambda(   27)=  0.0098   gamma=  143.06 GHz
     lambda(   28)=  0.0096   gamma=  140.37 GHz
     lambda(   29)=  0.0091   gamma=  139.25 GHz
     lambda(   30)=  0.0092   gamma=  140.24 GHz
     lambda(   31)=  0.0085   gamma=  131.46 GHz
     lambda(   32)=  0.0088   gamma=  151.53 GHz
     lambda(   33)=  0.0271   gamma=  643.03 GHz
     Gaussian Broadening:   0.020 Ry, ngauss=   0
     DOS =  5.693100 states/spin/Ry/Unit Cell at Ef= 20.442131 eV
     lambda(    1)=  0.1179   gamma=    7.97 GHz
     lambda(    2)=  0.1209   gamma=    8.18 GHz
     lambda(    3)=  0.1014   gamma=   18.99 GHz
     lambda(    4)=  0.2080   gamma=  612.43 GHz
     lambda(    5)=  0.1355   gamma=  449.25 GHz
     lambda(    6)=  0.1289   gamma=  427.22 GHz
     lambda(    7)=  0.0310   gamma=  152.67 GHz
     lambda(    8)=  0.0306   gamma=  153.86 GHz
     lambda(    9)=  0.0308   gamma=  154.92 GHz
     lambda(   10)=  0.0721   gamma=  403.51 GHz
     lambda(   11)=  0.0739   gamma=  413.31 GHz
     lambda(   12)=  0.0589   gamma=  385.00 GHz
     lambda(   13)=  0.0315   gamma=  223.67 GHz
     lambda(   14)=  0.0314   gamma=  222.86 GHz
     lambda(   15)=  0.0407   gamma=  312.90 GHz
     lambda(   16)=  0.0777   gamma=  618.53 GHz
     lambda(   17)=  0.0573   gamma=  476.45 GHz
     lambda(   18)=  0.0590   gamma=  490.72 GHz
     lambda(   19)=  0.0038   gamma=   35.13 GHz
     lambda(   20)=  0.0116   gamma=  111.85 GHz
     lambda(   21)=  0.0119   gamma=  114.41 GHz
     lambda(   22)=  0.0117   gamma=  118.77 GHz
     lambda(   23)=  0.0115   gamma=  116.16 GHz
     lambda(   24)=  0.1156   gamma= 1383.87 GHz
     lambda(   25)=  0.1143   gamma= 1368.54 GHz
     lambda(   26)=  0.0235   gamma=  341.77 GHz
     lambda(   27)=  0.0115   gamma=  169.91 GHz
     lambda(   28)=  0.0113   gamma=  166.57 GHz
     lambda(   29)=  0.0104   gamma=  160.50 GHz
     lambda(   30)=  0.0105   gamma=  161.74 GHz
     lambda(   31)=  0.0092   gamma=  143.71 GHz
     lambda(   32)=  0.0105   gamma=  182.84 GHz
     lambda(   33)=  0.0240   gamma=  573.93 GHz
     Gaussian Broadening:   0.025 Ry, ngauss=   0
     DOS =  5.666404 states/spin/Ry/Unit Cell at Ef= 20.442478 eV
     lambda(    1)=  0.1205   gamma=    8.11 GHz
     lambda(    2)=  0.1243   gamma=    8.37 GHz
     lambda(    3)=  0.0994   gamma=   18.53 GHz
     lambda(    4)=  0.2140   gamma=  627.19 GHz
     lambda(    5)=  0.1381   gamma=  455.43 GHz
     lambda(    6)=  0.1333   gamma=  439.75 GHz
     lambda(    7)=  0.0306   gamma=  150.10 GHz
     lambda(    8)=  0.0299   gamma=  149.40 GHz
     lambda(    9)=  0.0303   gamma=  151.51 GHz
     lambda(   10)=  0.0763   gamma=  424.81 GHz
     lambda(   11)=  0.0777   gamma=  432.80 GHz
     lambda(   12)=  0.0586   gamma=  381.15 GHz
     lambda(   13)=  0.0344   gamma=  243.16 GHz
     lambda(   14)=  0.0345   gamma=  243.45 GHz
     lambda(   15)=  0.0411   gamma=  314.42 GHz
     lambda(   16)=  0.0786   gamma=  622.58 GHz
     lambda(   17)=  0.0592   gamma=  490.43 GHz
     lambda(   18)=  0.0608   gamma=  503.55 GHz
     lambda(   19)=  0.0039   gamma=   35.39 GHz
     lambda(   20)=  0.0125   gamma=  120.17 GHz
     lambda(   21)=  0.0128   gamma=  122.83 GHz
     lambda(   22)=  0.0115   gamma=  116.04 GHz
     lambda(   23)=  0.0112   gamma=  113.45 GHz
     lambda(   24)=  0.1128   gamma= 1343.83 GHz
     lambda(   25)=  0.1124   gamma= 1338.55 GHz
     lambda(   26)=  0.0237   gamma=  342.08 GHz
     lambda(   27)=  0.0125   gamma=  184.03 GHz
     lambda(   28)=  0.0123   gamma=  180.76 GHz
     lambda(   29)=  0.0112   gamma=  171.23 GHz
     lambda(   30)=  0.0113   gamma=  172.40 GHz
     lambda(   31)=  0.0097   gamma=  151.09 GHz
     lambda(   32)=  0.0113   gamma=  194.30 GHz
     lambda(   33)=  0.0233   gamma=  553.64 GHz
     Gaussian Broadening:   0.030 Ry, ngauss=   0
     DOS =  5.611139 states/spin/Ry/Unit Cell at Ef= 20.443739 eV
     lambda(    1)=  0.1224   gamma=    8.16 GHz
     lambda(    2)=  0.1264   gamma=    8.43 GHz
     lambda(    3)=  0.0975   gamma=   18.00 GHz
     lambda(    4)=  0.2143   gamma=  622.17 GHz
     lambda(    5)=  0.1399   gamma=  457.15 GHz
     lambda(    6)=  0.1362   gamma=  444.84 GHz
     lambda(    7)=  0.0300   gamma=  145.39 GHz
     lambda(    8)=  0.0290   gamma=  143.78 GHz
     lambda(    9)=  0.0295   gamma=  146.28 GHz
     lambda(   10)=  0.0790   gamma=  435.57 GHz
     lambda(   11)=  0.0801   gamma=  441.74 GHz
     lambda(   12)=  0.0586   gamma=  377.53 GHz
     lambda(   13)=  0.0362   gamma=  253.18 GHz
     lambda(   14)=  0.0363   gamma=  254.11 GHz
     lambda(   15)=  0.0420   gamma=  318.16 GHz
     lambda(   16)=  0.0780   gamma=  611.81 GHz
     lambda(   17)=  0.0600   gamma=  492.22 GHz
     lambda(   18)=  0.0615   gamma=  503.89 GHz
     lambda(   19)=  0.0039   gamma=   35.37 GHz
     lambda(   20)=  0.0131   gamma=  124.47 GHz
     lambda(   21)=  0.0134   gamma=  127.02 GHz
     lambda(   22)=  0.0113   gamma=  112.50 GHz
     lambda(   23)=  0.0110   gamma=  109.99 GHz
     lambda(   24)=  0.1108   gamma= 1307.60 GHz
     lambda(   25)=  0.1107   gamma= 1306.36 GHz
     lambda(   26)=  0.0237   gamma=  339.20 GHz
     lambda(   27)=  0.0132   gamma=  192.39 GHz
     lambda(   28)=  0.0130   gamma=  189.45 GHz
     lambda(   29)=  0.0116   gamma=  175.89 GHz
     lambda(   30)=  0.0117   gamma=  176.88 GHz
     lambda(   31)=  0.0100   gamma=  154.87 GHz
     lambda(   32)=  0.0115   gamma=  196.39 GHz
     lambda(   33)=  0.0231   gamma=  544.30 GHz
     Gaussian Broadening:   0.035 Ry, ngauss=   0
     DOS =  5.552244 states/spin/Ry/Unit Cell at Ef= 20.445745 eV
     lambda(    1)=  0.1242   gamma=    8.19 GHz
     lambda(    2)=  0.1281   gamma=    8.45 GHz
     lambda(    3)=  0.0961   gamma=   17.56 GHz
     lambda(    4)=  0.2129   gamma=  611.50 GHz
     lambda(    5)=  0.1422   gamma=  459.80 GHz
     lambda(    6)=  0.1390   gamma=  449.27 GHz
     lambda(    7)=  0.0294   gamma=  141.04 GHz
     lambda(    8)=  0.0283   gamma=  138.87 GHz
     lambda(    9)=  0.0289   gamma=  141.40 GHz
     lambda(   10)=  0.0807   gamma=  440.31 GHz
     lambda(   11)=  0.0815   gamma=  444.78 GHz
     lambda(   12)=  0.0587   gamma=  374.31 GHz
     lambda(   13)=  0.0374   gamma=  258.63 GHz
     lambda(   14)=  0.0375   gamma=  259.86 GHz
     lambda(   15)=  0.0429   gamma=  321.76 GHz
     lambda(   16)=  0.0769   gamma=  597.13 GHz
     lambda(   17)=  0.0603   gamma=  489.52 GHz
     lambda(   18)=  0.0616   gamma=  499.93 GHz
     lambda(   19)=  0.0040   gamma=   35.61 GHz
     lambda(   20)=  0.0135   gamma=  126.94 GHz
     lambda(   21)=  0.0138   gamma=  129.24 GHz
     lambda(   22)=  0.0110   gamma=  109.04 GHz
     lambda(   23)=  0.0108   gamma=  106.73 GHz
     lambda(   24)=  0.1095   gamma= 1278.52 GHz
     lambda(   25)=  0.1095   gamma= 1278.64 GHz
     lambda(   26)=  0.0237   gamma=  335.43 GHz
     lambda(   27)=  0.0138   gamma=  198.51 GHz
     lambda(   28)=  0.0136   gamma=  195.95 GHz
     lambda(   29)=  0.0118   gamma=  177.66 GHz
     lambda(   30)=  0.0119   gamma=  178.46 GHz
     lambda(   31)=  0.0103   gamma=  156.54 GHz
     lambda(   32)=  0.0115   gamma=  195.23 GHz
     lambda(   33)=  0.0230   gamma=  536.79 GHz
     Gaussian Broadening:   0.040 Ry, ngauss=   0
     DOS =  5.498034 states/spin/Ry/Unit Cell at Ef= 20.448391 eV
     lambda(    1)=  0.1259   gamma=    8.22 GHz
     lambda(    2)=  0.1296   gamma=    8.46 GHz
     lambda(    3)=  0.0952   gamma=   17.22 GHz
     lambda(    4)=  0.2111   gamma=  600.51 GHz
     lambda(    5)=  0.1451   gamma=  464.52 GHz
     lambda(    6)=  0.1421   gamma=  454.95 GHz
     lambda(    7)=  0.0289   gamma=  137.48 GHz
     lambda(    8)=  0.0278   gamma=  135.01 GHz
     lambda(    9)=  0.0283   gamma=  137.37 GHz
     lambda(   10)=  0.0817   gamma=  441.30 GHz
     lambda(   11)=  0.0823   gamma=  444.30 GHz
     lambda(   12)=  0.0588   gamma=  371.69 GHz
     lambda(   13)=  0.0382   gamma=  262.00 GHz
     lambda(   14)=  0.0384   gamma=  263.32 GHz
     lambda(   15)=  0.0437   gamma=  324.45 GHz
     lambda(   16)=  0.0758   gamma=  582.79 GHz
     lambda(   17)=  0.0605   gamma=  485.95 GHz
     lambda(   18)=  0.0617   gamma=  495.34 GHz
     lambda(   19)=  0.0041   gamma=   36.16 GHz
     lambda(   20)=  0.0138   gamma=  128.51 GHz
     lambda(   21)=  0.0140   gamma=  130.51 GHz
     lambda(   22)=  0.0108   gamma=  105.96 GHz
     lambda(   23)=  0.0106   gamma=  103.93 GHz
     lambda(   24)=  0.1087   gamma= 1256.26 GHz
     lambda(   25)=  0.1087   gamma= 1256.64 GHz
     lambda(   26)=  0.0236   gamma=  331.32 GHz
     lambda(   27)=  0.0143   gamma=  203.75 GHz
     lambda(   28)=  0.0141   gamma=  201.53 GHz
     lambda(   29)=  0.0120   gamma=  178.07 GHz
     lambda(   30)=  0.0120   gamma=  178.71 GHz
     lambda(   31)=  0.0104   gamma=  157.16 GHz
     lambda(   32)=  0.0115   gamma=  193.01 GHz
     lambda(   33)=  0.0229   gamma=  529.55 GHz
     Gaussian Broadening:   0.045 Ry, ngauss=   0
     DOS =  5.450225 states/spin/Ry/Unit Cell at Ef= 20.451582 eV
     lambda(    1)=  0.1275   gamma=    8.25 GHz
     lambda(    2)=  0.1309   gamma=    8.47 GHz
     lambda(    3)=  0.0945   gamma=   16.95 GHz
     lambda(    4)=  0.2095   gamma=  590.59 GHz
     lambda(    5)=  0.1484   gamma=  470.80 GHz
     lambda(    6)=  0.1455   gamma=  461.79 GHz
     lambda(    7)=  0.0285   gamma=  134.47 GHz
     lambda(    8)=  0.0274   gamma=  131.98 GHz
     lambda(    9)=  0.0279   gamma=  134.08 GHz
     lambda(   10)=  0.0822   gamma=  439.91 GHz
     lambda(   11)=  0.0825   gamma=  441.75 GHz
     lambda(   12)=  0.0591   gamma=  369.94 GHz
     lambda(   13)=  0.0389   gamma=  264.59 GHz
     lambda(   14)=  0.0391   gamma=  265.89 GHz
     lambda(   15)=  0.0443   gamma=  326.32 GHz
     lambda(   16)=  0.0748   gamma=  569.94 GHz
     lambda(   17)=  0.0606   gamma=  482.78 GHz
     lambda(   18)=  0.0617   gamma=  491.32 GHz
     lambda(   19)=  0.0042   gamma=   36.95 GHz
     lambda(   20)=  0.0141   gamma=  129.63 GHz
     lambda(   21)=  0.0142   gamma=  131.33 GHz
     lambda(   22)=  0.0106   gamma=  103.26 GHz
     lambda(   23)=  0.0105   gamma=  101.56 GHz
     lambda(   24)=  0.1082   gamma= 1239.55 GHz
     lambda(   25)=  0.1082   gamma= 1239.77 GHz
     lambda(   26)=  0.0235   gamma=  327.04 GHz
     lambda(   27)=  0.0147   gamma=  208.64 GHz
     lambda(   28)=  0.0146   gamma=  206.68 GHz
     lambda(   29)=  0.0121   gamma=  177.83 GHz
     lambda(   30)=  0.0121   gamma=  178.35 GHz
     lambda(   31)=  0.0105   gamma=  157.31 GHz
     lambda(   32)=  0.0115   gamma=  190.35 GHz
     lambda(   33)=  0.0228   gamma=  522.50 GHz
     Gaussian Broadening:   0.050 Ry, ngauss=   0
     DOS =  5.408705 states/spin/Ry/Unit Cell at Ef= 20.455233 eV
     lambda(    1)=  0.1289   gamma=    8.28 GHz
     lambda(    2)=  0.1321   gamma=    8.48 GHz
     lambda(    3)=  0.0940   gamma=   16.72 GHz
     lambda(    4)=  0.2081   gamma=  582.17 GHz
     lambda(    5)=  0.1518   gamma=  477.94 GHz
     lambda(    6)=  0.1490   gamma=  469.27 GHz
     lambda(    7)=  0.0282   gamma=  131.78 GHz
     lambda(    8)=  0.0271   gamma=  129.53 GHz
     lambda(    9)=  0.0275   gamma=  131.36 GHz
     lambda(   10)=  0.0823   gamma=  437.10 GHz
     lambda(   11)=  0.0824   gamma=  438.08 GHz
     lambda(   12)=  0.0594   gamma=  369.30 GHz
     lambda(   13)=  0.0396   gamma=  267.02 GHz
     lambda(   14)=  0.0398   gamma=  268.27 GHz
     lambda(   15)=  0.0449   gamma=  327.72 GHz
     lambda(   16)=  0.0739   gamma=  558.71 GHz
     lambda(   17)=  0.0608   gamma=  480.34 GHz
     lambda(   18)=  0.0618   gamma=  488.15 GHz
     lambda(   19)=  0.0043   gamma=   37.93 GHz
     lambda(   20)=  0.0143   gamma=  130.53 GHz
     lambda(   21)=  0.0144   gamma=  131.96 GHz
     lambda(   22)=  0.0105   gamma=  100.90 GHz
     lambda(   23)=  0.0103   gamma=   99.52 GHz
     lambda(   24)=  0.1079   gamma= 1227.10 GHz
     lambda(   25)=  0.1079   gamma= 1227.07 GHz
     lambda(   26)=  0.0234   gamma=  322.74 GHz
     lambda(   27)=  0.0152   gamma=  213.40 GHz
     lambda(   28)=  0.0151   gamma=  211.64 GHz
     lambda(   29)=  0.0121   gamma=  177.30 GHz
     lambda(   30)=  0.0122   gamma=  177.74 GHz
     lambda(   31)=  0.0106   gamma=  157.34 GHz
     lambda(   32)=  0.0114   gamma=  187.52 GHz
     lambda(   33)=  0.0227   gamma=  515.78 GHz
 
 
     Number of q in the star =    8
     List of q in the star:
          1   0.117851130   0.117851130  -0.117851130
          2   0.117851130  -0.117851130  -0.117851130
          3   0.117851130   0.117851130   0.117851130
          4  -0.117851130  -0.117851130   0.117851130
          5  -0.117851130   0.117851130  -0.117851130
          6  -0.117851130  -0.117851130  -0.117851130
          7  -0.117851130   0.117851130   0.117851130
          8   0.117851130  -0.117851130   0.117851130
 
     init_run     :      0.44s CPU      0.77s WALL (       1 calls)
     electrons    :     14.26s CPU     17.73s WALL (       1 calls)

     Called by init_run:
     wfcinit      :      0.00s CPU      0.02s WALL (       1 calls)
     potinit      :      0.22s CPU      0.49s WALL (       1 calls)
     hinit0       :      0.09s CPU      0.10s WALL (       1 calls)

     Called by electrons:
     c_bands      :     14.26s CPU     17.73s WALL (       1 calls)
     v_of_rho     :      0.02s CPU      0.31s WALL (       2 calls)
     newd         :      0.05s CPU      0.06s WALL (       2 calls)
     PAW_pot      :      0.41s CPU      0.86s WALL (       2 calls)

     Called by c_bands:
     init_us_2    :      2.40s CPU      2.78s WALL (   25753 calls)
     cegterg      :      8.06s CPU      8.55s WALL (     304 calls)

     Called by *egterg:
     cdiaghg      :      2.54s CPU      2.68s WALL (    4920 calls)
     h_psi        :    629.53s CPU    813.75s WALL (  455123 calls)
     s_psi        :     19.93s CPU     21.68s WALL (  931321 calls)
     g_psi        :      0.03s CPU      0.03s WALL (    4738 calls)

     Called by h_psi:
     h_psi:calbec :     13.71s CPU     14.88s WALL (  455123 calls)
     vloc_psi     :    601.75s CPU    783.61s WALL (  455123 calls)
     add_vuspsi   :     10.46s CPU     11.39s WALL (  455123 calls)

     General routines
     calbec       :     57.58s CPU     60.58s WALL (  973909 calls)
     fft          :      2.08s CPU      2.68s WALL (    6115 calls)
     ffts         :     49.18s CPU     77.52s WALL (    4375 calls)
     fftw         :    935.01s CPU   1326.11s WALL ( 8021374 calls)
     interpolate  :      0.97s CPU      1.40s WALL (     613 calls)
     davcio       :     11.20s CPU    585.39s WALL (  132955 calls)
 
     Parallel routines
 
     PHONON       :  37m22.69s CPU  58m47.65s WALL

     INITIALIZATION: 
     phq_setup    :      0.02s CPU      0.09s WALL (       1 calls)
     phq_init     :     15.52s CPU     18.15s WALL (       1 calls)
 
     phq_init     :     15.52s CPU     18.15s WALL (       1 calls)
     set_drhoc    :      0.00s CPU      0.00s WALL (       3 calls)
     init_vloc    :      0.01s CPU      0.02s WALL (       2 calls)
     init_us_1    :      0.15s CPU      0.22s WALL (       2 calls)
     init_us_2    :      2.40s CPU      2.78s WALL (   25753 calls)
     newd         :      0.05s CPU      0.06s WALL (       2 calls)
     dvanqq       :      1.71s CPU      1.72s WALL (       1 calls)
     drho         :      9.60s CPU     11.68s WALL (       1 calls)
     drhous       :      4.62s CPU      5.52s WALL (       1 calls)
     nldyntot     :      0.33s CPU      0.33s WALL (       1 calls)
 
     DYNAMICAL MATRIX:
     dynmat0      :      2.27s CPU      2.52s WALL (       1 calls)
     dynmat_us    :      2.22s CPU      2.45s WALL (       1 calls)
     addusdynmat  :      0.00s CPU      0.00s WALL (       1 calls)
     d2ionq       :      0.04s CPU      0.04s WALL (       1 calls)
     dynmatcc     :      0.01s CPU      0.01s WALL (       1 calls)
     phqscf       :   2184.76s CPU   3453.81s WALL (       1 calls)
     dynmatrix    :      0.07s CPU      0.13s WALL (       1 calls)
 
     phqscf       :   2184.76s CPU   3453.81s WALL (       1 calls)
     solve_linter :   2155.07s CPU   3400.12s WALL (      22 calls)
     sth_kernel   :   1683.66s CPU   2496.50s WALL (     211 calls)
     h_prec       :    429.75s CPU    437.01s WALL (   19201 calls)
     apply_dpot_b :    216.44s CPU    334.85s WALL (   26299 calls)
     ortho        :     33.08s CPU     34.13s WALL (   26299 calls)
     cgsolve      :    685.48s CPU    874.69s WALL (   26299 calls)
     incdrhoscf   :    195.51s CPU    293.60s WALL (   26299 calls)
                                        0.00s GPU  (   26299 calls)
     addusddens   :     23.30s CPU     30.94s WALL (     233 calls)
     vpsifft      :     40.18s CPU     64.53s WALL (    3003 calls)
     dv_of_drho   :      2.60s CPU      2.95s WALL (     289 calls)
     mix_pot      :     45.73s CPU    156.89s WALL (     211 calls)
     drhodv       :     29.65s CPU     39.88s WALL (      22 calls)
     psymdvscf    :     31.66s CPU     32.39s WALL (     211 calls)
     newdq        :     25.02s CPU     25.26s WALL (     211 calls)
     adddvscf     :      3.28s CPU      3.61s WALL (   26299 calls)
     com_dvloc    :     48.59s CPU     76.57s WALL (    3762 calls)
                                        0.00s GPU  (    3762 calls)
     addcore      :      0.44s CPU      0.55s WALL (    1411 calls)
                                        0.00s GPU  (    1411 calls)
     drhodvus     :      8.47s CPU     33.09s WALL (      22 calls)
 
     dvqpsi_us    :     62.02s CPU     90.66s WALL (    3003 calls)
                                        0.00s GPU  (    3003 calls)
     dvqpsi_us_on :      9.18s CPU      9.31s WALL (    3003 calls)
 
     add_vuspsi   :     10.46s CPU     11.39s WALL (  455123 calls)
     addusdbec    :      1.69s CPU      1.81s WALL (   29302 calls)
 
     drhodvus     :      8.47s CPU     33.09s WALL (      22 calls)
 
      Electron-phonon coupling
     elphel       :     47.35s CPU     95.72s WALL (      22 calls)
     elphsum      :     26.50s CPU     27.19s WALL (       1 calls)
 
      General routines
     calbec       :     57.58s CPU     60.58s WALL (  973909 calls)
     fft          :      2.08s CPU      2.68s WALL (    6115 calls)
     ffts         :     49.18s CPU     77.52s WALL (    4375 calls)
     fftw         :    935.01s CPU   1326.11s WALL ( 8021374 calls)
     davcio       :     11.20s CPU    585.39s WALL (  132955 calls)
     write_rec    :      0.38s CPU    158.34s WALL (     233 calls)
 
      Additional routines
     ch_psi       :    676.29s CPU    864.59s WALL (  449899 calls)
     last         :     36.82s CPU     40.00s WALL (  449899 calls)
     Hesh         :      1.27s CPU      1.42s WALL (  449899 calls)
     ch_psi_all_k :     33.44s CPU     36.33s WALL (  449899 calls)
                                        0.00s GPU  (  449899 calls)
     ch_psi_calbe :     11.03s CPU     11.92s WALL (  449899 calls)
                                        0.00s GPU  (  449899 calls)
     h_psi_bgrp   :    630.47s CPU    814.75s WALL (  455123 calls)
     h_psi        :    629.53s CPU    813.75s WALL (  455123 calls)
     h_psi:pot    :    627.91s CPU    811.97s WALL (  455123 calls)
     h_psi:calbec :     13.71s CPU     14.88s WALL (  455123 calls)
     s_psi_bgrp   :     22.92s CPU     24.89s WALL (  931321 calls)
     s_psi        :     19.93s CPU     21.68s WALL (  931321 calls)
 
 
     PHONON       :  37m22.69s CPU  58m47.65s WALL

 
   This run was terminated on:  13:50:28  22Oct2025            

=------------------------------------------------------------------------------=
   JOB DONE.
=------------------------------------------------------------------------------=
