
     Program PHONON v.7.4.1 starts on 22Oct2025 at 14: 0:54 

     This program is part of the open-source Quantum ESPRESSO suite
     for quantum simulation of materials; please cite
         "P. Giannozzi et al., J. Phys.:Condens. Matter 21 395502 (2009);
         "P. Giannozzi et al., J. Phys.:Condens. Matter 29 465901 (2017);
         "P. Giannozzi et al., J. Chem. Phys. 152 154105 (2020);
          URL http://www.quantum-espresso.org", 
     in publications or presentations arising from this work. More details at
     http://www.quantum-espresso.org/quote

     Parallel version (MPI), running on    48 processors

     MPI processes distributed on     1 nodes
     180876 MiB available memory on the printing compute node when the environment starts
 
     Waiting for input...
     Reading input from standard input

     Reading xml data from directory:

     ./tmp/La1H10.save/
 
     K-points division:     npool     =       4
     R & G space division:  proc/nbgrp/npool/nimage =      12
     Subspace diagonalization in iterative solution of the eigenvalue problem:
     a serial algorithm will be used

     file La.pbe-spfn-kjpaw_psl.1.0.0.UPF: wavefunction(s)  5S 5D 4F renormalized
     file H.pbe-kjpaw_psl.1.0.0.UPF: wavefunction(s)  1S renormalized

     IMPORTANT: XC functional enforced from input :
     Exchange-correlation= PBE
                           (   1   4   3   4   0   0   0)
     Any further DFT definition will be discarded
     Please, verify this is what you really want

 
     Parallelization info
     --------------------
     sticks:   dense  smooth     PW     G-vecs:    dense   smooth      PW
     Min         231      77     23                 8029     1540     259
     Max         232      78     24                 8031     1543     261
     Sum        2773     925    283                96353    18499    3119
 
     Using Slab Decomposition
 
     Reading collected, re-writing distributed wavefunctions in ./tmp/


     Dynamical matrices for ( 6, 6, 6)  uniform grid of q-points
     (  16 q-points):
       N         xq(1)         xq(2)         xq(3) 
       1   0.000000000   0.000000000   0.000000000
       2   0.117851130   0.117851130  -0.117851130
       3   0.235702260   0.235702260  -0.235702260
       4  -0.353553391  -0.353553391   0.353553391
       5   0.235702260   0.000000000   0.000000000
       6   0.353553391   0.117851130  -0.117851130
       7  -0.235702260  -0.471404521   0.471404521
       8  -0.117851130  -0.353553391   0.353553391
       9   0.000000000  -0.235702260   0.235702260
      10   0.471404521   0.000000000   0.000000000
      11  -0.117851130  -0.589255651   0.589255651
      12  -0.000000000  -0.471404521   0.471404521
      13  -0.707106781   0.000000000   0.000000000
      14  -0.235702260  -0.471404521   0.707106781
      15  -0.117851130  -0.353553391   0.589255651
      16  -0.707106781   0.235702260   0.000000000

     Number and degeneracy of irreps per q-point
       N         xq(1)         xq(2)         xq(3)   N irreps
       1   0.000000000   0.000000000   0.000000000      13
        1   2   3   3   3   3   1   2   3   3   3   3   3
       2   0.117851130   0.117851130  -0.117851130      22
        1   1   1   1   1   1   1   1   1   1   1   2   2   2   2   2   2   2
   2   2   2   2
       3   0.235702260   0.235702260  -0.235702260      22
        1   1   1   1   1   1   1   1   1   1   1   2   2   2   2   2   2   2
   2   2   2   2
       4  -0.353553391  -0.353553391   0.353553391      22
        1   1   1   1   1   2   2   2   2   2   1   1   1   1   1   1   2   2
   2   2   2   2
       5   0.235702260   0.000000000   0.000000000      24
        1   1   1   1   1   1   1   1   1   1   1   1   1   1   1   2   2   2
   2   2   2   2   2   2
       6   0.353553391   0.117851130  -0.117851130      33
     No degeneracy
       7  -0.235702260  -0.471404521   0.471404521      33
     No degeneracy
       8  -0.117851130  -0.353553391   0.353553391      33
     No degeneracy
       9   0.000000000  -0.235702260   0.235702260      33
     No degeneracy
      10   0.471404521   0.000000000   0.000000000      24
        1   1   1   1   1   1   1   1   1   1   1   1   1   1   1   2   2   2
   2   2   2   2   2   2
      11  -0.117851130  -0.589255651   0.589255651      33
     No degeneracy
      12  -0.000000000  -0.471404521   0.471404521      33
     No degeneracy
      13  -0.707106781   0.000000000   0.000000000      24
        1   1   1   1   1   1   1   2   2   2   2   1   1   1   1   1   1   1
   1   2   2   2   2   2
      14  -0.235702260  -0.471404521   0.707106781      33
     No degeneracy
      15  -0.117851130  -0.353553391   0.589255651      33
     No degeneracy
Eigenvectors exchange needed    7   16
      16  -0.707106781   0.235702260   0.000000000      32
        1   1   1   1   1   1   2   1   1   1   1   1   1   1   1   1   1   1
   1   1   1   1   1   1   1   1   1   1   1   1   1   1

     Saving dvscf to file. Distribute only q points, not irreducible representations.

     Calculation of q =    0.0000000  -0.2357023   0.2357023
 
     Parallelization info
     --------------------
     sticks:   dense  smooth     PW     G-vecs:    dense   smooth      PW
     Min         231      77     25                 8029     1540     289
     Max         232      78     26                 8031     1543     292
     Sum        2773     925    301                96353    18499    3479
 
     Using Slab Decomposition
 

     Title: 
     Electron-phonon coefficients for La1H10                                    


     bravais-lattice index     =            0
     lattice parameter (alat)  =       6.4716  a.u.
     unit-cell volume          =     191.6541 (a.u.)^3
     number of atoms/cell      =           11
     number of atomic types    =            2
     number of electrons       =        21.00
     number of Kohn-Sham states=           15
     kinetic-energy cutoff     =      80.0000  Ry
     charge density cutoff     =     960.0000  Ry
     Exchange-correlation= PBE
                           (   1   4   3   4   0   0   0)

     celldm(1)=   6.471590  celldm(2)=   0.000000  celldm(3)=   0.000000
     celldm(4)=   0.000000  celldm(5)=   0.000000  celldm(6)=   0.000000

     crystal axes: (cart. coord. in units of alat)
               a(1) = (   0.000000   0.707107   0.707107 )  
               a(2) = (   0.707107   0.000000   0.707107 )  
               a(3) = (   0.707107   0.707107   0.000000 )  

     reciprocal axes: (cart. coord. in units 2 pi/alat)
               b(1) = ( -0.707107  0.707107  0.707107 )  
               b(2) = (  0.707107 -0.707107  0.707107 )  
               b(3) = (  0.707107  0.707107 -0.707107 )  


     PseudoPot. # 1 for La read from file:
     /work/home/mayuan/workplace/1.typical_hydride/003.MH10/1.LaH10/250/Tc-666-paw/pp/La.pbe-spfn-kjpaw_psl.1.0.0.UPF
     MD5 check sum: ccc10218a00d76b68822f6b8f5772390
     Pseudo is Projector augmented-wave + core cor, Zval = 11.0
     Generated using 'atomic' code by A. Dal Corso  v.7.1
     Shape of augmentation charge: PSQ
     Using radial grid of 1253 points,  8 beta functions with: 
                l(1) =   0
                l(2) =   0
                l(3) =   1
                l(4) =   1
                l(5) =   2
                l(6) =   2
                l(7) =   3
                l(8) =   3
     Q(r) pseudized with 0 coefficients 


     PseudoPot. # 2 for H  read from file:
     /work/home/mayuan/workplace/1.typical_hydride/003.MH10/1.LaH10/250/Tc-666-paw/pp/H.pbe-kjpaw_psl.1.0.0.UPF
     MD5 check sum: 3bb27c602ede137025941d095c9090b7
     Pseudo is Projector augmented-wave, Zval =  1.0
     Generated using 'atomic' code by A. Dal Corso  v.7.1
     Shape of augmentation charge: PSQ
     Using radial grid of  929 points,  2 beta functions with: 
                l(1) =   0
                l(2) =   0
     Q(r) pseudized with 0 coefficients 


     atomic species   valence    mass     pseudopotential
     La               11.00   138.90547     La( 1.00)
     H                 1.00     1.00794     H ( 1.00)

     48 Sym. Ops., with inversion, found



   Cartesian axes

     site n.     atom                  positions (alat units)
         1        La     tau(   1) = (   0.0000000   0.0000000   0.0000000  )
         2        H      tau(   2) = (   0.3535534   0.3535534   0.3535534  )
         3        H      tau(   3) = (   1.0606602   1.0606602   1.0606602  )
         4        H      tau(   4) = (   0.8776866   0.8776866   0.8776866  )
         5        H      tau(   5) = (   0.5365270   0.5365270   0.5365270  )
         6        H      tau(   6) = (   0.5365270   0.5365270   0.8776866  )
         7        H      tau(   7) = (   0.8776866   0.8776866   0.5365270  )
         8        H      tau(   8) = (   0.5365270   0.8776866   0.5365270  )
         9        H      tau(   9) = (   0.8776866   0.5365270   0.8776866  )
        10        H      tau(  10) = (   0.8776866   0.5365270   0.5365270  )
        11        H      tau(  11) = (   0.5365270   0.8776866   0.8776866  )

     number of k points=  1020  Gaussian smearing, width (Ry)=  0.0200

     Number of k-points >= 100: set verbosity='high' to print them.

     Dense  grid:    96353 G-vectors     FFT dimensions: (  64,  64,  64)

     Smooth grid:    18499 G-vectors     FFT dimensions: (  40,  40,  40)

     Estimated max dynamical RAM per process >      32.60 MB

     Estimated total dynamical RAM >       1.53 GB

     The potential is recalculated from file :
     ./tmp/_ph0/La1H10.q_9/La1H10.save/charge-density

     Starting wfcs are   30 atomic wfcs
     Checking if some PAW data can be deallocated... 

     Band Structure Calculation
     Davidson diagonalization with overlap

     ethr =  4.76E-11,  avg # of iterations = 30.0

     total cpu time spent up to now is       24.9 secs

     End of band structure calculation

     Number of k-points >= 100: set verbosity='high' to print the bands.

     the Fermi energy is    20.4236 ev

     Writing config to output data dir ./tmp/_ph0/La1H10.q_9/La1H10.save/ :
     XML data file

     Electron-phonon coefficients for La1H10                                    

     bravais-lattice index     =            0
     lattice parameter (alat)  =       6.4716  a.u.
     unit-cell volume          =     191.6541 (a.u.)^3
     number of atoms/cell      =           11
     number of atomic types    =            2
     kinetic-energy cut-off    =      80.0000  Ry
     charge density cut-off    =     960.0000  Ry
     convergence threshold     =      1.0E-14
     beta                      =       0.3000
     number of iterations used =            4
     Exchange-correlation= PBE
                           (   1   4   3   4   0   0   0)


     celldm(1)=    6.47159  celldm(2)=    0.00000  celldm(3)=    0.00000
     celldm(4)=    0.00000  celldm(5)=    0.00000  celldm(6)=    0.00000

     crystal axes: (cart. coord. in units of alat)
               a(1) = (  0.0000  0.7071  0.7071 )  
               a(2) = (  0.7071  0.0000  0.7071 )  
               a(3) = (  0.7071  0.7071  0.0000 )  

     reciprocal axes: (cart. coord. in units 2 pi/alat)
               b(1) = ( -0.7071  0.7071  0.7071 )  
               b(2) = (  0.7071 -0.7071  0.7071 )  
               b(3) = (  0.7071  0.7071 -0.7071 )  


     Atoms inside the unit cell: 

     Cartesian axes

     site n.  atom      mass           positions (alat units)
        1  La    138.9055   tau(    1) = (    0.00000    0.00000    0.00000  )
        2  H       1.0079   tau(    2) = (    0.35355    0.35355    0.35355  )
        3  H       1.0079   tau(    3) = (    1.06066    1.06066    1.06066  )
        4  H       1.0079   tau(    4) = (    0.87769    0.87769    0.87769  )
        5  H       1.0079   tau(    5) = (    0.53653    0.53653    0.53653  )
        6  H       1.0079   tau(    6) = (    0.53653    0.53653    0.87769  )
        7  H       1.0079   tau(    7) = (    0.87769    0.87769    0.53653  )
        8  H       1.0079   tau(    8) = (    0.53653    0.87769    0.53653  )
        9  H       1.0079   tau(    9) = (    0.87769    0.53653    0.87769  )
       10  H       1.0079   tau(   10) = (    0.87769    0.53653    0.53653  )
       11  H       1.0079   tau(   11) = (    0.53653    0.87769    0.87769  )

     Computing dynamical matrix for 
                    q = (   0.0000000  -0.2357023   0.2357023 )
 
      4 Sym.Ops. (no q -> -q+G )


     G cutoff = 1018.4355  (   8029 G-vectors)     FFT grid: ( 64, 64, 64)
     G cutoff =  339.4785  (   1542 G-vectors)  smooth grid: ( 40, 40, 40)

     number of k points=  1020  Gaussian smearing, width (Ry)=  0.0200

     PseudoPot. # 1 for La read from file:
     /work/home/mayuan/workplace/1.typical_hydride/003.MH10/1.LaH10/250/Tc-666-paw/pp/La.pbe-spfn-kjpaw_psl.1.0.0.UPF
     MD5 check sum: ccc10218a00d76b68822f6b8f5772390
     Pseudo is Projector augmented-wave + core cor, Zval = 11.0
     Generated using 'atomic' code by A. Dal Corso  v.7.1
     Shape of augmentation charge: PSQ
     Using radial grid of 1253 points,  8 beta functions with: 
                l(1) =   0
                l(2) =   0
                l(3) =   1
                l(4) =   1
                l(5) =   2
                l(6) =   2
                l(7) =   3
                l(8) =   3
     Q(r) pseudized with 0 coefficients 


     PseudoPot. # 2 for H  read from file:
     /work/home/mayuan/workplace/1.typical_hydride/003.MH10/1.LaH10/250/Tc-666-paw/pp/H.pbe-kjpaw_psl.1.0.0.UPF
     MD5 check sum: 3bb27c602ede137025941d095c9090b7
     Pseudo is Projector augmented-wave, Zval =  1.0
     Generated using 'atomic' code by A. Dal Corso  v.7.1
     Shape of augmentation charge: PSQ
     Using radial grid of  929 points,  2 beta functions with: 
                l(1) =   0
                l(2) =   0
     Q(r) pseudized with 0 coefficients 


     Mode symmetry, C_2v (mm2)  point group:


     Atomic displacements:
     There are   33 irreducible representations

     Representation     1      1 modes -  To be done

     Representation     2      1 modes -  To be done

     Representation     3      1 modes -  To be done

     Representation     4      1 modes -  To be done

     Representation     5      1 modes -  To be done

     Representation     6      1 modes -  To be done

     Representation     7      1 modes -  To be done

     Representation     8      1 modes -  To be done

     Representation     9      1 modes -  To be done

     Representation    10      1 modes -  To be done

     Representation    11      1 modes -  To be done

     Representation    12      1 modes -  To be done

     Representation    13      1 modes -  To be done

     Representation    14      1 modes -  To be done

     Representation    15      1 modes -  To be done

     Representation    16      1 modes -  To be done

     Representation    17      1 modes -  To be done

     Representation    18      1 modes -  To be done

     Representation    19      1 modes -  To be done

     Representation    20      1 modes -  To be done

     Representation    21      1 modes -  To be done

     Representation    22      1 modes -  To be done

     Representation    23      1 modes -  To be done

     Representation    24      1 modes -  To be done

     Representation    25      1 modes -  To be done

     Representation    26      1 modes -  To be done

     Representation    27      1 modes -  To be done

     Representation    28      1 modes -  To be done

     Representation    29      1 modes -  To be done

     Representation    30      1 modes -  To be done

     Representation    31      1 modes -  To be done

     Representation    32      1 modes -  To be done

     Representation    33      1 modes -  To be done


     Message from routine init_vloc:
     Interpolation table for Vloc re-allocated

     Alpha used in Ewald sum =   2.8000
     PHONON       :     42.03s CPU     54.63s WALL



     Representation #   1 mode #   1

     Self-consistent Calculation

      iter #   1 total cpu time :    69.2 secs   av.it.:   5.0
      thresh= 1.000E-02 alpha_mix =  0.300 |ddv_scf|^2 =  1.211E-05

      iter #   2 total cpu time :    88.9 secs   av.it.:  10.3
      thresh= 3.480E-04 alpha_mix =  0.300 |ddv_scf|^2 =  1.525E-04

      iter #   3 total cpu time :   108.5 secs   av.it.:   8.2
      thresh= 1.235E-03 alpha_mix =  0.300 |ddv_scf|^2 =  4.930E-09

      iter #   4 total cpu time :   125.9 secs   av.it.:  11.8
      thresh= 7.022E-06 alpha_mix =  0.300 |ddv_scf|^2 =  6.681E-10

      iter #   5 total cpu time :   146.0 secs   av.it.:  12.0
      thresh= 2.585E-06 alpha_mix =  0.300 |ddv_scf|^2 =  7.523E-11

      iter #   6 total cpu time :   167.5 secs   av.it.:  11.9
      thresh= 8.674E-07 alpha_mix =  0.300 |ddv_scf|^2 =  1.730E-10

      iter #   7 total cpu time :   185.7 secs   av.it.:   9.2
      thresh= 1.315E-06 alpha_mix =  0.300 |ddv_scf|^2 =  9.268E-12

      iter #   8 total cpu time :   204.8 secs   av.it.:  11.8
      thresh= 3.044E-07 alpha_mix =  0.300 |ddv_scf|^2 =  1.745E-12

      iter #   9 total cpu time :   223.7 secs   av.it.:  11.5
      thresh= 1.321E-07 alpha_mix =  0.300 |ddv_scf|^2 =  6.467E-12

      iter #  10 total cpu time :   243.1 secs   av.it.:   9.8
      thresh= 2.543E-07 alpha_mix =  0.300 |ddv_scf|^2 =  1.310E-13

      iter #  11 total cpu time :   264.3 secs   av.it.:  12.0
      thresh= 3.619E-08 alpha_mix =  0.300 |ddv_scf|^2 =  1.427E-14

      iter #  12 total cpu time :   286.8 secs   av.it.:  11.8
      thresh= 1.194E-08 alpha_mix =  0.300 |ddv_scf|^2 =  1.026E-14

      iter #  13 total cpu time :   304.7 secs   av.it.:  11.0
      thresh= 1.013E-08 alpha_mix =  0.300 |ddv_scf|^2 =  9.675E-15

     End of self-consistent calculation

     Convergence has been achieved 


     Representation #   2 mode #   2

     Self-consistent Calculation

      iter #   1 total cpu time :   333.6 secs   av.it.:   5.3
      thresh= 1.000E-02 alpha_mix =  0.300 |ddv_scf|^2 =  3.560E-05

      iter #   2 total cpu time :   350.5 secs   av.it.:  10.2
      thresh= 5.966E-04 alpha_mix =  0.300 |ddv_scf|^2 =  4.501E-04

      iter #   3 total cpu time :   366.4 secs   av.it.:   8.2
      thresh= 2.121E-03 alpha_mix =  0.300 |ddv_scf|^2 =  5.536E-09

      iter #   4 total cpu time :   384.5 secs   av.it.:  11.6
      thresh= 7.441E-06 alpha_mix =  0.300 |ddv_scf|^2 =  1.226E-09

      iter #   5 total cpu time :   404.0 secs   av.it.:  12.3
      thresh= 3.502E-06 alpha_mix =  0.300 |ddv_scf|^2 =  5.481E-11

      iter #   6 total cpu time :   422.3 secs   av.it.:  12.4
      thresh= 7.404E-07 alpha_mix =  0.300 |ddv_scf|^2 =  5.752E-12

      iter #   7 total cpu time :   441.7 secs   av.it.:  12.0
      thresh= 2.398E-07 alpha_mix =  0.300 |ddv_scf|^2 =  5.949E-12

      iter #   8 total cpu time :   460.4 secs   av.it.:   9.2
      thresh= 2.439E-07 alpha_mix =  0.300 |ddv_scf|^2 =  3.621E-12

      iter #   9 total cpu time :   479.5 secs   av.it.:  11.5
      thresh= 1.903E-07 alpha_mix =  0.300 |ddv_scf|^2 =  6.411E-13

      iter #  10 total cpu time :   497.0 secs   av.it.:   9.9
      thresh= 8.007E-08 alpha_mix =  0.300 |ddv_scf|^2 =  9.716E-14

      iter #  11 total cpu time :   515.8 secs   av.it.:  11.3
      thresh= 3.117E-08 alpha_mix =  0.300 |ddv_scf|^2 =  9.310E-15

     End of self-consistent calculation

     Convergence has been achieved 


     Representation #   3 mode #   3

     Self-consistent Calculation

      iter #   1 total cpu time :   548.4 secs   av.it.:   5.1
      thresh= 1.000E-02 alpha_mix =  0.300 |ddv_scf|^2 =  6.679E-06

      iter #   2 total cpu time :   564.2 secs   av.it.:  10.4
      thresh= 2.584E-04 alpha_mix =  0.300 |ddv_scf|^2 =  8.342E-05

      iter #   3 total cpu time :   579.2 secs   av.it.:   8.2
      thresh= 9.133E-04 alpha_mix =  0.300 |ddv_scf|^2 =  1.097E-08

      iter #   4 total cpu time :   596.0 secs   av.it.:  11.8
      thresh= 1.047E-05 alpha_mix =  0.300 |ddv_scf|^2 =  1.032E-09

      iter #   5 total cpu time :   616.6 secs   av.it.:  12.1
      thresh= 3.213E-06 alpha_mix =  0.300 |ddv_scf|^2 =  7.446E-11

      iter #   6 total cpu time :   635.4 secs   av.it.:  11.9
      thresh= 8.629E-07 alpha_mix =  0.300 |ddv_scf|^2 =  2.021E-10

      iter #   7 total cpu time :   654.4 secs   av.it.:   9.3
      thresh= 1.421E-06 alpha_mix =  0.300 |ddv_scf|^2 =  1.127E-11

      iter #   8 total cpu time :   674.6 secs   av.it.:  11.9
      thresh= 3.357E-07 alpha_mix =  0.300 |ddv_scf|^2 =  8.773E-12

      iter #   9 total cpu time :   691.3 secs   av.it.:   9.5
      thresh= 2.962E-07 alpha_mix =  0.300 |ddv_scf|^2 =  2.209E-12

      iter #  10 total cpu time :   713.4 secs   av.it.:  11.1
      thresh= 1.486E-07 alpha_mix =  0.300 |ddv_scf|^2 =  1.431E-13

      iter #  11 total cpu time :   732.9 secs   av.it.:  12.0
      thresh= 3.782E-08 alpha_mix =  0.300 |ddv_scf|^2 =  1.846E-14

      iter #  12 total cpu time :   750.5 secs   av.it.:  11.9
      thresh= 1.359E-08 alpha_mix =  0.300 |ddv_scf|^2 =  1.630E-14

      iter #  13 total cpu time :   769.0 secs   av.it.:  10.2
      thresh= 1.277E-08 alpha_mix =  0.300 |ddv_scf|^2 =  6.931E-15

     End of self-consistent calculation

     Convergence has been achieved 


     Representation #   4 mode #   4

     Self-consistent Calculation

      iter #   1 total cpu time :   793.1 secs   av.it.:   5.2
      thresh= 1.000E-02 alpha_mix =  0.300 |ddv_scf|^2 =  1.461E-05

      iter #   2 total cpu time :   809.4 secs   av.it.:  10.3
      thresh= 3.823E-04 alpha_mix =  0.300 |ddv_scf|^2 =  1.844E-04

      iter #   3 total cpu time :   825.5 secs   av.it.:   8.2
      thresh= 1.358E-03 alpha_mix =  0.300 |ddv_scf|^2 =  5.563E-09

      iter #   4 total cpu time :   842.5 secs   av.it.:  11.8
      thresh= 7.458E-06 alpha_mix =  0.300 |ddv_scf|^2 =  1.179E-09

      iter #   5 total cpu time :   859.1 secs   av.it.:  12.4
      thresh= 3.434E-06 alpha_mix =  0.300 |ddv_scf|^2 =  6.139E-11

      iter #   6 total cpu time :   877.2 secs   av.it.:  12.2
      thresh= 7.835E-07 alpha_mix =  0.300 |ddv_scf|^2 =  1.773E-10

      iter #   7 total cpu time :   899.3 secs   av.it.:   9.2
      thresh= 1.331E-06 alpha_mix =  0.300 |ddv_scf|^2 =  6.303E-12

      iter #   8 total cpu time :   916.5 secs   av.it.:  12.2
      thresh= 2.511E-07 alpha_mix =  0.300 |ddv_scf|^2 =  2.819E-12

      iter #   9 total cpu time :   933.4 secs   av.it.:  10.3
      thresh= 1.679E-07 alpha_mix =  0.300 |ddv_scf|^2 =  9.466E-12

      iter #  10 total cpu time :   951.5 secs   av.it.:  10.7
      thresh= 3.077E-07 alpha_mix =  0.300 |ddv_scf|^2 =  9.292E-14

      iter #  11 total cpu time :   969.4 secs   av.it.:  11.7
      thresh= 3.048E-08 alpha_mix =  0.300 |ddv_scf|^2 =  1.443E-14

      iter #  12 total cpu time :   987.0 secs   av.it.:  12.1
      thresh= 1.201E-08 alpha_mix =  0.300 |ddv_scf|^2 =  1.026E-14

      iter #  13 total cpu time :  1005.6 secs   av.it.:  11.1
      thresh= 1.013E-08 alpha_mix =  0.300 |ddv_scf|^2 =  1.442E-14

      iter #  14 total cpu time :  1023.3 secs   av.it.:  10.2
      thresh= 1.201E-08 alpha_mix =  0.300 |ddv_scf|^2 =  4.081E-16

     End of self-consistent calculation

     Convergence has been achieved 


     Representation #   5 mode #   5

     Self-consistent Calculation

      iter #   1 total cpu time :  1048.6 secs   av.it.:   5.1
      thresh= 1.000E-02 alpha_mix =  0.300 |ddv_scf|^2 =  5.844E-06

      iter #   2 total cpu time :  1064.6 secs   av.it.:  10.4
      thresh= 2.417E-04 alpha_mix =  0.300 |ddv_scf|^2 =  7.304E-05

      iter #   3 total cpu time :  1079.7 secs   av.it.:   8.2
      thresh= 8.546E-04 alpha_mix =  0.300 |ddv_scf|^2 =  8.508E-09

      iter #   4 total cpu time :  1097.1 secs   av.it.:  11.8
      thresh= 9.224E-06 alpha_mix =  0.300 |ddv_scf|^2 =  1.111E-09

      iter #   5 total cpu time :  1114.5 secs   av.it.:  12.3
      thresh= 3.333E-06 alpha_mix =  0.300 |ddv_scf|^2 =  6.314E-11

      iter #   6 total cpu time :  1134.6 secs   av.it.:  12.0
      thresh= 7.946E-07 alpha_mix =  0.300 |ddv_scf|^2 =  5.646E-11

      iter #   7 total cpu time :  1153.8 secs   av.it.:   9.9
      thresh= 7.514E-07 alpha_mix =  0.300 |ddv_scf|^2 =  3.095E-11

      iter #   8 total cpu time :  1175.2 secs   av.it.:  11.3
      thresh= 5.563E-07 alpha_mix =  0.300 |ddv_scf|^2 =  1.290E-12

      iter #   9 total cpu time :  1190.9 secs   av.it.:  12.1
      thresh= 1.136E-07 alpha_mix =  0.300 |ddv_scf|^2 =  9.855E-13

      iter #  10 total cpu time :  1205.6 secs   av.it.:  10.2
      thresh= 9.927E-08 alpha_mix =  0.300 |ddv_scf|^2 =  4.002E-13

      iter #  11 total cpu time :  1223.0 secs   av.it.:  11.3
      thresh= 6.326E-08 alpha_mix =  0.300 |ddv_scf|^2 =  8.928E-15

     End of self-consistent calculation

     Convergence has been achieved 


     Representation #   6 mode #   6

     Self-consistent Calculation

      iter #   1 total cpu time :  1249.9 secs   av.it.:   8.1
      thresh= 1.000E-02 alpha_mix =  0.300 |ddv_scf|^2 =  2.719E-03

      iter #   2 total cpu time :  1266.4 secs   av.it.:  10.3
      thresh= 5.214E-03 alpha_mix =  0.300 |ddv_scf|^2 =  3.437E-02

      iter #   3 total cpu time :  1283.8 secs   av.it.:   9.0
      thresh= 1.000E-02 alpha_mix =  0.300 |ddv_scf|^2 =  1.792E-07

      iter #   4 total cpu time :  1300.8 secs   av.it.:  11.3
      thresh= 4.234E-05 alpha_mix =  0.300 |ddv_scf|^2 =  3.752E-08

      iter #   5 total cpu time :  1317.9 secs   av.it.:  12.0
      thresh= 1.937E-05 alpha_mix =  0.300 |ddv_scf|^2 =  6.087E-09

      iter #   6 total cpu time :  1335.3 secs   av.it.:  12.3
      thresh= 7.802E-06 alpha_mix =  0.300 |ddv_scf|^2 =  6.172E-10

      iter #   7 total cpu time :  1349.8 secs   av.it.:  11.9
      thresh= 2.484E-06 alpha_mix =  0.300 |ddv_scf|^2 =  1.494E-11

      iter #   8 total cpu time :  1366.6 secs   av.it.:  11.4
      thresh= 3.865E-07 alpha_mix =  0.300 |ddv_scf|^2 =  8.176E-12

      iter #   9 total cpu time :  1383.3 secs   av.it.:  11.8
      thresh= 2.859E-07 alpha_mix =  0.300 |ddv_scf|^2 =  5.504E-12

      iter #  10 total cpu time :  1400.8 secs   av.it.:   9.9
      thresh= 2.346E-07 alpha_mix =  0.300 |ddv_scf|^2 =  2.091E-13

      iter #  11 total cpu time :  1419.0 secs   av.it.:  11.7
      thresh= 4.573E-08 alpha_mix =  0.300 |ddv_scf|^2 =  1.185E-14

      iter #  12 total cpu time :  1436.4 secs   av.it.:  11.4
      thresh= 1.089E-08 alpha_mix =  0.300 |ddv_scf|^2 =  1.965E-14

      iter #  13 total cpu time :  1453.9 secs   av.it.:   9.5
      thresh= 1.402E-08 alpha_mix =  0.300 |ddv_scf|^2 =  4.094E-15

     End of self-consistent calculation

     Convergence has been achieved 


     Representation #   7 mode #   7

     Self-consistent Calculation

      iter #   1 total cpu time :  1479.8 secs   av.it.:   5.2
      thresh= 1.000E-02 alpha_mix =  0.300 |ddv_scf|^2 =  1.357E-05

      iter #   2 total cpu time :  1498.4 secs   av.it.:  10.4
      thresh= 3.683E-04 alpha_mix =  0.300 |ddv_scf|^2 =  1.704E-04

      iter #   3 total cpu time :  1515.3 secs   av.it.:   8.2
      thresh= 1.305E-03 alpha_mix =  0.300 |ddv_scf|^2 =  6.202E-09

      iter #   4 total cpu time :  1533.0 secs   av.it.:  11.7
      thresh= 7.876E-06 alpha_mix =  0.300 |ddv_scf|^2 =  9.897E-10

      iter #   5 total cpu time :  1550.2 secs   av.it.:  12.2
      thresh= 3.146E-06 alpha_mix =  0.300 |ddv_scf|^2 =  1.060E-10

      iter #   6 total cpu time :  1568.0 secs   av.it.:  12.0
      thresh= 1.030E-06 alpha_mix =  0.300 |ddv_scf|^2 =  4.950E-10

      iter #   7 total cpu time :  1586.8 secs   av.it.:   9.2
      thresh= 2.225E-06 alpha_mix =  0.300 |ddv_scf|^2 =  8.074E-12

      iter #   8 total cpu time :  1604.8 secs   av.it.:  12.2
      thresh= 2.841E-07 alpha_mix =  0.300 |ddv_scf|^2 =  1.013E-11

      iter #   9 total cpu time :  1622.1 secs   av.it.:   9.8
      thresh= 3.183E-07 alpha_mix =  0.300 |ddv_scf|^2 =  3.601E-12

      iter #  10 total cpu time :  1638.4 secs   av.it.:  11.2
      thresh= 1.898E-07 alpha_mix =  0.300 |ddv_scf|^2 =  1.373E-13

      iter #  11 total cpu time :  1660.1 secs   av.it.:  12.2
      thresh= 3.705E-08 alpha_mix =  0.300 |ddv_scf|^2 =  2.172E-14

      iter #  12 total cpu time :  1677.6 secs   av.it.:  11.4
      thresh= 1.474E-08 alpha_mix =  0.300 |ddv_scf|^2 =  2.631E-14

      iter #  13 total cpu time :  1695.9 secs   av.it.:  11.0
      thresh= 1.622E-08 alpha_mix =  0.300 |ddv_scf|^2 =  1.447E-14

      iter #  14 total cpu time :  1713.8 secs   av.it.:  11.0
      thresh= 1.203E-08 alpha_mix =  0.300 |ddv_scf|^2 =  7.263E-16

     End of self-consistent calculation

     Convergence has been achieved 


     Representation #   8 mode #   8

     Self-consistent Calculation

      iter #   1 total cpu time :  1738.6 secs   av.it.:   5.2
      thresh= 1.000E-02 alpha_mix =  0.300 |ddv_scf|^2 =  3.497E-05

      iter #   2 total cpu time :  1756.7 secs   av.it.:  10.2
      thresh= 5.913E-04 alpha_mix =  0.300 |ddv_scf|^2 =  4.422E-04

      iter #   3 total cpu time :  1775.6 secs   av.it.:   8.2
      thresh= 2.103E-03 alpha_mix =  0.300 |ddv_scf|^2 =  4.215E-09

      iter #   4 total cpu time :  1792.1 secs   av.it.:  11.7
      thresh= 6.493E-06 alpha_mix =  0.300 |ddv_scf|^2 =  9.131E-10

      iter #   5 total cpu time :  1810.6 secs   av.it.:  12.1
      thresh= 3.022E-06 alpha_mix =  0.300 |ddv_scf|^2 =  6.210E-11

      iter #   6 total cpu time :  1829.9 secs   av.it.:  12.0
      thresh= 7.880E-07 alpha_mix =  0.300 |ddv_scf|^2 =  1.126E-10

      iter #   7 total cpu time :  1847.6 secs   av.it.:   9.4
      thresh= 1.061E-06 alpha_mix =  0.300 |ddv_scf|^2 =  1.204E-11

      iter #   8 total cpu time :  1866.3 secs   av.it.:  11.4
      thresh= 3.470E-07 alpha_mix =  0.300 |ddv_scf|^2 =  2.322E-11

      iter #   9 total cpu time :  1885.6 secs   av.it.:   9.8
      thresh= 4.818E-07 alpha_mix =  0.300 |ddv_scf|^2 =  1.398E-12

      iter #  10 total cpu time :  1909.4 secs   av.it.:  11.2
      thresh= 1.182E-07 alpha_mix =  0.300 |ddv_scf|^2 =  1.180E-13

      iter #  11 total cpu time :  1927.8 secs   av.it.:  12.2
      thresh= 3.435E-08 alpha_mix =  0.300 |ddv_scf|^2 =  1.721E-14

      iter #  12 total cpu time :  1944.5 secs   av.it.:  11.4
      thresh= 1.312E-08 alpha_mix =  0.300 |ddv_scf|^2 =  9.986E-15

     End of self-consistent calculation

     Convergence has been achieved 


     Representation #   9 mode #   9

     Self-consistent Calculation

      iter #   1 total cpu time :  1970.9 secs   av.it.:   5.4
      thresh= 1.000E-02 alpha_mix =  0.300 |ddv_scf|^2 =  3.455E-05

      iter #   2 total cpu time :  1988.8 secs   av.it.:  10.3
      thresh= 5.878E-04 alpha_mix =  0.300 |ddv_scf|^2 =  4.360E-04

      iter #   3 total cpu time :  2006.6 secs   av.it.:   8.2
      thresh= 2.088E-03 alpha_mix =  0.300 |ddv_scf|^2 =  5.993E-09

      iter #   4 total cpu time :  2023.5 secs   av.it.:  11.5
      thresh= 7.741E-06 alpha_mix =  0.300 |ddv_scf|^2 =  9.775E-10

      iter #   5 total cpu time :  2041.4 secs   av.it.:  12.1
      thresh= 3.126E-06 alpha_mix =  0.300 |ddv_scf|^2 =  1.051E-10

      iter #   6 total cpu time :  2059.1 secs   av.it.:  11.9
      thresh= 1.025E-06 alpha_mix =  0.300 |ddv_scf|^2 =  4.446E-10

      iter #   7 total cpu time :  2075.3 secs   av.it.:   9.1
      thresh= 2.108E-06 alpha_mix =  0.300 |ddv_scf|^2 =  7.539E-12

      iter #   8 total cpu time :  2096.1 secs   av.it.:  12.1
      thresh= 2.746E-07 alpha_mix =  0.300 |ddv_scf|^2 =  2.978E-12

      iter #   9 total cpu time :  2114.2 secs   av.it.:  10.7
      thresh= 1.726E-07 alpha_mix =  0.300 |ddv_scf|^2 =  1.712E-11

      iter #  10 total cpu time :  2130.3 secs   av.it.:   9.8
      thresh= 4.137E-07 alpha_mix =  0.300 |ddv_scf|^2 =  1.718E-13

      iter #  11 total cpu time :  2148.7 secs   av.it.:  12.1
      thresh= 4.145E-08 alpha_mix =  0.300 |ddv_scf|^2 =  1.776E-14

      iter #  12 total cpu time :  2167.2 secs   av.it.:  11.4
      thresh= 1.333E-08 alpha_mix =  0.300 |ddv_scf|^2 =  2.179E-14

      iter #  13 total cpu time :  2187.8 secs   av.it.:  10.9
      thresh= 1.476E-08 alpha_mix =  0.300 |ddv_scf|^2 =  1.410E-14

      iter #  14 total cpu time :  2206.5 secs   av.it.:  10.8
      thresh= 1.188E-08 alpha_mix =  0.300 |ddv_scf|^2 =  4.175E-16

     End of self-consistent calculation

     Convergence has been achieved 


     Representation #  10 mode #  10

     Self-consistent Calculation

      iter #   1 total cpu time :  2241.4 secs   av.it.:   5.7
      thresh= 1.000E-02 alpha_mix =  0.300 |ddv_scf|^2 =  8.577E-05

      iter #   2 total cpu time :  2257.5 secs   av.it.:  10.3
      thresh= 9.261E-04 alpha_mix =  0.300 |ddv_scf|^2 =  1.084E-03

      iter #   3 total cpu time :  2271.6 secs   av.it.:   8.2
      thresh= 3.292E-03 alpha_mix =  0.300 |ddv_scf|^2 =  8.048E-09

      iter #   4 total cpu time :  2290.7 secs   av.it.:  11.5
      thresh= 8.971E-06 alpha_mix =  0.300 |ddv_scf|^2 =  1.837E-09

      iter #   5 total cpu time :  2310.7 secs   av.it.:  11.8
      thresh= 4.286E-06 alpha_mix =  0.300 |ddv_scf|^2 =  1.431E-10

      iter #   6 total cpu time :  2327.2 secs   av.it.:  12.0
      thresh= 1.196E-06 alpha_mix =  0.300 |ddv_scf|^2 =  5.114E-11

      iter #   7 total cpu time :  2347.5 secs   av.it.:   9.9
      thresh= 7.151E-07 alpha_mix =  0.300 |ddv_scf|^2 =  4.145E-11

      iter #   8 total cpu time :  2366.6 secs   av.it.:  10.9
      thresh= 6.438E-07 alpha_mix =  0.300 |ddv_scf|^2 =  5.468E-12

      iter #   9 total cpu time :  2384.1 secs   av.it.:  10.5
      thresh= 2.338E-07 alpha_mix =  0.300 |ddv_scf|^2 =  2.415E-12

      iter #  10 total cpu time :  2403.2 secs   av.it.:  11.3
      thresh= 1.554E-07 alpha_mix =  0.300 |ddv_scf|^2 =  1.622E-13

      iter #  11 total cpu time :  2424.6 secs   av.it.:  11.8
      thresh= 4.028E-08 alpha_mix =  0.300 |ddv_scf|^2 =  1.515E-14

      iter #  12 total cpu time :  2442.0 secs   av.it.:  11.5
      thresh= 1.231E-08 alpha_mix =  0.300 |ddv_scf|^2 =  3.282E-15

     End of self-consistent calculation

     Convergence has been achieved 


     Representation #  11 mode #  11

     Self-consistent Calculation

      iter #   1 total cpu time :  2464.9 secs   av.it.:   4.2
      thresh= 1.000E-02 alpha_mix =  0.300 |ddv_scf|^2 =  4.589E-09

      iter #   2 total cpu time :  2485.6 secs   av.it.:  11.7
      thresh= 6.774E-06 alpha_mix =  0.300 |ddv_scf|^2 =  1.401E-09

      iter #   3 total cpu time :  2505.5 secs   av.it.:  12.2
      thresh= 3.743E-06 alpha_mix =  0.300 |ddv_scf|^2 =  7.573E-11

      iter #   4 total cpu time :  2525.6 secs   av.it.:  12.4
      thresh= 8.703E-07 alpha_mix =  0.300 |ddv_scf|^2 =  2.966E-12

      iter #   5 total cpu time :  2542.2 secs   av.it.:  12.3
      thresh= 1.722E-07 alpha_mix =  0.300 |ddv_scf|^2 =  5.093E-13

      iter #   6 total cpu time :  2559.2 secs   av.it.:  12.5
      thresh= 7.137E-08 alpha_mix =  0.300 |ddv_scf|^2 =  1.138E-14

      iter #   7 total cpu time :  2574.9 secs   av.it.:  12.4
      thresh= 1.067E-08 alpha_mix =  0.300 |ddv_scf|^2 =  4.455E-16

     End of self-consistent calculation

     Convergence has been achieved 


     Representation #  12 mode #  12

     Self-consistent Calculation

      iter #   1 total cpu time :  2602.2 secs   av.it.:   4.1
      thresh= 1.000E-02 alpha_mix =  0.300 |ddv_scf|^2 =  1.310E-08

      iter #   2 total cpu time :  2621.4 secs   av.it.:  11.2
      thresh= 1.145E-05 alpha_mix =  0.300 |ddv_scf|^2 =  3.070E-09

      iter #   3 total cpu time :  2637.5 secs   av.it.:  12.1
      thresh= 5.541E-06 alpha_mix =  0.300 |ddv_scf|^2 =  6.373E-11

      iter #   4 total cpu time :  2653.6 secs   av.it.:  12.5
      thresh= 7.983E-07 alpha_mix =  0.300 |ddv_scf|^2 =  5.057E-12

      iter #   5 total cpu time :  2670.4 secs   av.it.:  12.1
      thresh= 2.249E-07 alpha_mix =  0.300 |ddv_scf|^2 =  1.570E-13

      iter #   6 total cpu time :  2689.2 secs   av.it.:  12.7
      thresh= 3.962E-08 alpha_mix =  0.300 |ddv_scf|^2 =  2.176E-15

     End of self-consistent calculation

     Convergence has been achieved 


     Representation #  13 mode #  13

     Self-consistent Calculation

      iter #   1 total cpu time :  2714.8 secs   av.it.:   4.6
      thresh= 1.000E-02 alpha_mix =  0.300 |ddv_scf|^2 =  2.948E-08

      iter #   2 total cpu time :  2734.5 secs   av.it.:  11.2
      thresh= 1.717E-05 alpha_mix =  0.300 |ddv_scf|^2 =  6.595E-09

      iter #   3 total cpu time :  2749.8 secs   av.it.:  12.1
      thresh= 8.121E-06 alpha_mix =  0.300 |ddv_scf|^2 =  8.493E-11

      iter #   4 total cpu time :  2766.7 secs   av.it.:  12.5
      thresh= 9.216E-07 alpha_mix =  0.300 |ddv_scf|^2 =  3.428E-12

      iter #   5 total cpu time :  2784.2 secs   av.it.:  12.0
      thresh= 1.851E-07 alpha_mix =  0.300 |ddv_scf|^2 =  2.023E-13

      iter #   6 total cpu time :  2801.6 secs   av.it.:  12.3
      thresh= 4.498E-08 alpha_mix =  0.300 |ddv_scf|^2 =  5.889E-16

     End of self-consistent calculation

     Convergence has been achieved 


     Representation #  14 mode #  14

     Self-consistent Calculation

      iter #   1 total cpu time :  2829.5 secs   av.it.:   4.5
      thresh= 1.000E-02 alpha_mix =  0.300 |ddv_scf|^2 =  1.471E-08

      iter #   2 total cpu time :  2845.3 secs   av.it.:  11.4
      thresh= 1.213E-05 alpha_mix =  0.300 |ddv_scf|^2 =  3.574E-09

      iter #   3 total cpu time :  2862.6 secs   av.it.:  12.2
      thresh= 5.979E-06 alpha_mix =  0.300 |ddv_scf|^2 =  9.330E-11

      iter #   4 total cpu time :  2881.0 secs   av.it.:  12.6
      thresh= 9.659E-07 alpha_mix =  0.300 |ddv_scf|^2 =  3.689E-12

      iter #   5 total cpu time :  2898.3 secs   av.it.:  12.2
      thresh= 1.921E-07 alpha_mix =  0.300 |ddv_scf|^2 =  5.182E-13

      iter #   6 total cpu time :  2919.3 secs   av.it.:  12.6
      thresh= 7.199E-08 alpha_mix =  0.300 |ddv_scf|^2 =  8.592E-15

     End of self-consistent calculation

     Convergence has been achieved 


     Representation #  15 mode #  15

     Self-consistent Calculation

      iter #   1 total cpu time :  2946.3 secs   av.it.:   4.5
      thresh= 1.000E-02 alpha_mix =  0.300 |ddv_scf|^2 =  1.471E-08

      iter #   2 total cpu time :  2962.9 secs   av.it.:  11.4
      thresh= 1.213E-05 alpha_mix =  0.300 |ddv_scf|^2 =  3.574E-09

      iter #   3 total cpu time :  2981.3 secs   av.it.:  12.2
      thresh= 5.979E-06 alpha_mix =  0.300 |ddv_scf|^2 =  9.330E-11

      iter #   4 total cpu time :  2999.4 secs   av.it.:  12.6
      thresh= 9.659E-07 alpha_mix =  0.300 |ddv_scf|^2 =  3.689E-12

      iter #   5 total cpu time :  3016.4 secs   av.it.:  12.2
      thresh= 1.921E-07 alpha_mix =  0.300 |ddv_scf|^2 =  5.182E-13

      iter #   6 total cpu time :  3033.5 secs   av.it.:  12.6
      thresh= 7.199E-08 alpha_mix =  0.300 |ddv_scf|^2 =  8.592E-15

     End of self-consistent calculation

     Convergence has been achieved 


     Representation #  16 mode #  16

     Self-consistent Calculation

      iter #   1 total cpu time :  3061.9 secs   av.it.:   4.1
      thresh= 1.000E-02 alpha_mix =  0.300 |ddv_scf|^2 =  4.103E-09

      iter #   2 total cpu time :  3079.6 secs   av.it.:  11.8
      thresh= 6.406E-06 alpha_mix =  0.300 |ddv_scf|^2 =  1.161E-09

      iter #   3 total cpu time :  3096.7 secs   av.it.:  12.3
      thresh= 3.407E-06 alpha_mix =  0.300 |ddv_scf|^2 =  6.357E-11

      iter #   4 total cpu time :  3116.0 secs   av.it.:  12.4
      thresh= 7.973E-07 alpha_mix =  0.300 |ddv_scf|^2 =  3.884E-12

      iter #   5 total cpu time :  3134.1 secs   av.it.:  12.4
      thresh= 1.971E-07 alpha_mix =  0.300 |ddv_scf|^2 =  3.108E-13

      iter #   6 total cpu time :  3151.3 secs   av.it.:  12.7
      thresh= 5.575E-08 alpha_mix =  0.300 |ddv_scf|^2 =  5.471E-15

     End of self-consistent calculation

     Convergence has been achieved 


     Representation #  17 mode #  17

     Self-consistent Calculation

      iter #   1 total cpu time :  3176.6 secs   av.it.:   4.7
      thresh= 1.000E-02 alpha_mix =  0.300 |ddv_scf|^2 =  2.789E-08

      iter #   2 total cpu time :  3195.3 secs   av.it.:  11.4
      thresh= 1.670E-05 alpha_mix =  0.300 |ddv_scf|^2 =  5.991E-09

      iter #   3 total cpu time :  3213.4 secs   av.it.:  12.1
      thresh= 7.740E-06 alpha_mix =  0.300 |ddv_scf|^2 =  2.193E-10

      iter #   4 total cpu time :  3233.0 secs   av.it.:  12.5
      thresh= 1.481E-06 alpha_mix =  0.300 |ddv_scf|^2 =  4.617E-12

      iter #   5 total cpu time :  3252.4 secs   av.it.:  11.8
      thresh= 2.149E-07 alpha_mix =  0.300 |ddv_scf|^2 =  9.237E-13

      iter #   6 total cpu time :  3272.1 secs   av.it.:  12.5
      thresh= 9.611E-08 alpha_mix =  0.300 |ddv_scf|^2 =  6.291E-14

      iter #   7 total cpu time :  3291.1 secs   av.it.:  12.1
      thresh= 2.508E-08 alpha_mix =  0.300 |ddv_scf|^2 =  3.160E-15

     End of self-consistent calculation

     Convergence has been achieved 


     Representation #  18 mode #  18

     Self-consistent Calculation

      iter #   1 total cpu time :  3321.0 secs   av.it.:   4.9
      thresh= 1.000E-02 alpha_mix =  0.300 |ddv_scf|^2 =  4.604E-08

      iter #   2 total cpu time :  3337.1 secs   av.it.:  11.5
      thresh= 2.146E-05 alpha_mix =  0.300 |ddv_scf|^2 =  8.815E-09

      iter #   3 total cpu time :  3354.5 secs   av.it.:  12.2
      thresh= 9.389E-06 alpha_mix =  0.300 |ddv_scf|^2 =  1.930E-10

      iter #   4 total cpu time :  3372.8 secs   av.it.:  12.5
      thresh= 1.389E-06 alpha_mix =  0.300 |ddv_scf|^2 =  5.440E-12

      iter #   5 total cpu time :  3391.4 secs   av.it.:  12.0
      thresh= 2.332E-07 alpha_mix =  0.300 |ddv_scf|^2 =  1.020E-12

      iter #   6 total cpu time :  3411.3 secs   av.it.:  12.5
      thresh= 1.010E-07 alpha_mix =  0.300 |ddv_scf|^2 =  8.237E-14

      iter #   7 total cpu time :  3429.3 secs   av.it.:  12.2
      thresh= 2.870E-08 alpha_mix =  0.300 |ddv_scf|^2 =  3.441E-15

     End of self-consistent calculation

     Convergence has been achieved 


     Representation #  19 mode #  19

     Self-consistent Calculation

      iter #   1 total cpu time :  3456.4 secs   av.it.:   4.5
      thresh= 1.000E-02 alpha_mix =  0.300 |ddv_scf|^2 =  2.630E-08

      iter #   2 total cpu time :  3473.6 secs   av.it.:  11.2
      thresh= 1.622E-05 alpha_mix =  0.300 |ddv_scf|^2 =  5.065E-09

      iter #   3 total cpu time :  3491.9 secs   av.it.:  11.9
      thresh= 7.117E-06 alpha_mix =  0.300 |ddv_scf|^2 =  1.781E-10

      iter #   4 total cpu time :  3509.2 secs   av.it.:  12.4
      thresh= 1.335E-06 alpha_mix =  0.300 |ddv_scf|^2 =  3.534E-12

      iter #   5 total cpu time :  3527.4 secs   av.it.:  11.8
      thresh= 1.880E-07 alpha_mix =  0.300 |ddv_scf|^2 =  9.083E-13

      iter #   6 total cpu time :  3548.2 secs   av.it.:  12.3
      thresh= 9.530E-08 alpha_mix =  0.300 |ddv_scf|^2 =  2.060E-14

      iter #   7 total cpu time :  3566.5 secs   av.it.:  12.5
      thresh= 1.435E-08 alpha_mix =  0.300 |ddv_scf|^2 =  8.048E-16

     End of self-consistent calculation

     Convergence has been achieved 


     Representation #  20 mode #  20

     Self-consistent Calculation

      iter #   1 total cpu time :  3598.2 secs   av.it.:   4.9
      thresh= 1.000E-02 alpha_mix =  0.300 |ddv_scf|^2 =  4.604E-08

      iter #   2 total cpu time :  3616.1 secs   av.it.:  11.5
      thresh= 2.146E-05 alpha_mix =  0.300 |ddv_scf|^2 =  8.815E-09

      iter #   3 total cpu time :  3632.2 secs   av.it.:  12.2
      thresh= 9.389E-06 alpha_mix =  0.300 |ddv_scf|^2 =  1.930E-10

      iter #   4 total cpu time :  3650.5 secs   av.it.:  12.5
      thresh= 1.389E-06 alpha_mix =  0.300 |ddv_scf|^2 =  5.440E-12

      iter #   5 total cpu time :  3670.7 secs   av.it.:  12.0
      thresh= 2.332E-07 alpha_mix =  0.300 |ddv_scf|^2 =  1.020E-12

      iter #   6 total cpu time :  3689.3 secs   av.it.:  12.5
      thresh= 1.010E-07 alpha_mix =  0.300 |ddv_scf|^2 =  8.237E-14

      iter #   7 total cpu time :  3705.8 secs   av.it.:  12.2
      thresh= 2.870E-08 alpha_mix =  0.300 |ddv_scf|^2 =  3.441E-15

     End of self-consistent calculation

     Convergence has been achieved 


     Representation #  21 mode #  21

     Self-consistent Calculation

      iter #   1 total cpu time :  3730.4 secs   av.it.:   4.2
      thresh= 1.000E-02 alpha_mix =  0.300 |ddv_scf|^2 =  4.995E-09

      iter #   2 total cpu time :  3749.3 secs   av.it.:  11.7
      thresh= 7.067E-06 alpha_mix =  0.300 |ddv_scf|^2 =  1.530E-09

      iter #   3 total cpu time :  3767.9 secs   av.it.:  12.2
      thresh= 3.912E-06 alpha_mix =  0.300 |ddv_scf|^2 =  1.140E-10

      iter #   4 total cpu time :  3784.3 secs   av.it.:  12.5
      thresh= 1.068E-06 alpha_mix =  0.300 |ddv_scf|^2 =  3.013E-12

      iter #   5 total cpu time :  3803.5 secs   av.it.:  12.3
      thresh= 1.736E-07 alpha_mix =  0.300 |ddv_scf|^2 =  7.641E-13

      iter #   6 total cpu time :  3823.6 secs   av.it.:  12.4
      thresh= 8.741E-08 alpha_mix =  0.300 |ddv_scf|^2 =  1.947E-14

      iter #   7 total cpu time :  3845.3 secs   av.it.:  12.5
      thresh= 1.395E-08 alpha_mix =  0.300 |ddv_scf|^2 =  1.175E-15

     End of self-consistent calculation

     Convergence has been achieved 


     Representation #  22 mode #  22

     Self-consistent Calculation

      iter #   1 total cpu time :  3870.3 secs   av.it.:   7.0
      thresh= 1.000E-02 alpha_mix =  0.300 |ddv_scf|^2 =  8.928E-07

      iter #   2 total cpu time :  3887.0 secs   av.it.:  11.3
      thresh= 9.449E-05 alpha_mix =  0.300 |ddv_scf|^2 =  2.023E-07

      iter #   3 total cpu time :  3903.5 secs   av.it.:  12.0
      thresh= 4.498E-05 alpha_mix =  0.300 |ddv_scf|^2 =  1.655E-08

      iter #   4 total cpu time :  3923.0 secs   av.it.:  12.3
      thresh= 1.286E-05 alpha_mix =  0.300 |ddv_scf|^2 =  1.177E-10

      iter #   5 total cpu time :  3942.0 secs   av.it.:  11.5
      thresh= 1.085E-06 alpha_mix =  0.300 |ddv_scf|^2 =  2.846E-11

      iter #   6 total cpu time :  3960.5 secs   av.it.:  12.0
      thresh= 5.335E-07 alpha_mix =  0.300 |ddv_scf|^2 =  2.302E-12

      iter #   7 total cpu time :  3979.3 secs   av.it.:  12.1
      thresh= 1.517E-07 alpha_mix =  0.300 |ddv_scf|^2 =  7.174E-14

      iter #   8 total cpu time :  3999.1 secs   av.it.:  11.0
      thresh= 2.678E-08 alpha_mix =  0.300 |ddv_scf|^2 =  2.852E-14

      iter #   9 total cpu time :  4017.0 secs   av.it.:  12.5
      thresh= 1.689E-08 alpha_mix =  0.300 |ddv_scf|^2 =  1.357E-16

     End of self-consistent calculation

     Convergence has been achieved 


     Representation #  23 mode #  23

     Self-consistent Calculation

      iter #   1 total cpu time :  4046.0 secs   av.it.:   4.7
      thresh= 1.000E-02 alpha_mix =  0.300 |ddv_scf|^2 =  2.100E-08

      iter #   2 total cpu time :  4062.5 secs   av.it.:  11.5
      thresh= 1.449E-05 alpha_mix =  0.300 |ddv_scf|^2 =  4.755E-09

      iter #   3 total cpu time :  4082.7 secs   av.it.:  12.3
      thresh= 6.896E-06 alpha_mix =  0.300 |ddv_scf|^2 =  2.317E-10

      iter #   4 total cpu time :  4100.8 secs   av.it.:  12.5
      thresh= 1.522E-06 alpha_mix =  0.300 |ddv_scf|^2 =  4.859E-12

      iter #   5 total cpu time :  4118.9 secs   av.it.:  12.0
      thresh= 2.204E-07 alpha_mix =  0.300 |ddv_scf|^2 =  9.754E-13

      iter #   6 total cpu time :  4136.8 secs   av.it.:  12.6
      thresh= 9.876E-08 alpha_mix =  0.300 |ddv_scf|^2 =  5.429E-14

      iter #   7 total cpu time :  4157.8 secs   av.it.:  12.2
      thresh= 2.330E-08 alpha_mix =  0.300 |ddv_scf|^2 =  3.281E-15

     End of self-consistent calculation

     Convergence has been achieved 


     Representation #  24 mode #  24

     Self-consistent Calculation

      iter #   1 total cpu time :  4183.3 secs   av.it.:   4.5
      thresh= 1.000E-02 alpha_mix =  0.300 |ddv_scf|^2 =  4.389E-08

      iter #   2 total cpu time :  4202.7 secs   av.it.:  11.3
      thresh= 2.095E-05 alpha_mix =  0.300 |ddv_scf|^2 =  3.520E-09

      iter #   3 total cpu time :  4222.0 secs   av.it.:  11.7
      thresh= 5.933E-06 alpha_mix =  0.300 |ddv_scf|^2 =  3.592E-10

      iter #   4 total cpu time :  4240.7 secs   av.it.:  12.4
      thresh= 1.895E-06 alpha_mix =  0.300 |ddv_scf|^2 =  2.002E-11

      iter #   5 total cpu time :  4258.6 secs   av.it.:  12.3
      thresh= 4.475E-07 alpha_mix =  0.300 |ddv_scf|^2 =  1.002E-12

      iter #   6 total cpu time :  4277.2 secs   av.it.:  11.9
      thresh= 1.001E-07 alpha_mix =  0.300 |ddv_scf|^2 =  1.797E-13

      iter #   7 total cpu time :  4293.5 secs   av.it.:  12.3
      thresh= 4.239E-08 alpha_mix =  0.300 |ddv_scf|^2 =  9.922E-15

     End of self-consistent calculation

     Convergence has been achieved 


     Representation #  25 mode #  25

     Self-consistent Calculation

      iter #   1 total cpu time :  4323.6 secs   av.it.:   4.5
      thresh= 1.000E-02 alpha_mix =  0.300 |ddv_scf|^2 =  2.200E-08

      iter #   2 total cpu time :  4340.8 secs   av.it.:  11.5
      thresh= 1.483E-05 alpha_mix =  0.300 |ddv_scf|^2 =  3.644E-09

      iter #   3 total cpu time :  4359.2 secs   av.it.:  12.0
      thresh= 6.036E-06 alpha_mix =  0.300 |ddv_scf|^2 =  3.952E-10

      iter #   4 total cpu time :  4378.7 secs   av.it.:  12.3
      thresh= 1.988E-06 alpha_mix =  0.300 |ddv_scf|^2 =  2.328E-11

      iter #   5 total cpu time :  4397.4 secs   av.it.:  12.4
      thresh= 4.825E-07 alpha_mix =  0.300 |ddv_scf|^2 =  7.242E-13

      iter #   6 total cpu time :  4414.8 secs   av.it.:  11.9
      thresh= 8.510E-08 alpha_mix =  0.300 |ddv_scf|^2 =  1.916E-13

      iter #   7 total cpu time :  4431.1 secs   av.it.:  12.4
      thresh= 4.378E-08 alpha_mix =  0.300 |ddv_scf|^2 =  9.276E-15

     End of self-consistent calculation

     Convergence has been achieved 


     Representation #  26 mode #  26

     Self-consistent Calculation

      iter #   1 total cpu time :  4457.4 secs   av.it.:   4.5
      thresh= 1.000E-02 alpha_mix =  0.300 |ddv_scf|^2 =  3.266E-08

      iter #   2 total cpu time :  4474.9 secs   av.it.:  11.4
      thresh= 1.807E-05 alpha_mix =  0.300 |ddv_scf|^2 =  4.585E-09

      iter #   3 total cpu time :  4494.3 secs   av.it.:  11.9
      thresh= 6.772E-06 alpha_mix =  0.300 |ddv_scf|^2 =  3.323E-10

      iter #   4 total cpu time :  4511.6 secs   av.it.:  12.1
      thresh= 1.823E-06 alpha_mix =  0.300 |ddv_scf|^2 =  2.761E-11

      iter #   5 total cpu time :  4531.5 secs   av.it.:  12.1
      thresh= 5.254E-07 alpha_mix =  0.300 |ddv_scf|^2 =  1.437E-12

      iter #   6 total cpu time :  4552.5 secs   av.it.:  11.8
      thresh= 1.199E-07 alpha_mix =  0.300 |ddv_scf|^2 =  2.298E-13

      iter #   7 total cpu time :  4570.0 secs   av.it.:  12.2
      thresh= 4.794E-08 alpha_mix =  0.300 |ddv_scf|^2 =  9.096E-15

     End of self-consistent calculation

     Convergence has been achieved 


     Representation #  27 mode #  27

     Self-consistent Calculation

      iter #   1 total cpu time :  4600.3 secs   av.it.:   4.3
      thresh= 1.000E-02 alpha_mix =  0.300 |ddv_scf|^2 =  1.625E-08

      iter #   2 total cpu time :  4617.5 secs   av.it.:  11.4
      thresh= 1.275E-05 alpha_mix =  0.300 |ddv_scf|^2 =  3.288E-09

      iter #   3 total cpu time :  4634.7 secs   av.it.:  12.1
      thresh= 5.734E-06 alpha_mix =  0.300 |ddv_scf|^2 =  1.730E-10

      iter #   4 total cpu time :  4652.3 secs   av.it.:  12.0
      thresh= 1.315E-06 alpha_mix =  0.300 |ddv_scf|^2 =  2.363E-11

      iter #   5 total cpu time :  4669.4 secs   av.it.:  12.2
      thresh= 4.861E-07 alpha_mix =  0.300 |ddv_scf|^2 =  1.165E-12

      iter #   6 total cpu time :  4687.3 secs   av.it.:  12.3
      thresh= 1.079E-07 alpha_mix =  0.300 |ddv_scf|^2 =  9.536E-14

      iter #   7 total cpu time :  4706.0 secs   av.it.:  11.9
      thresh= 3.088E-08 alpha_mix =  0.300 |ddv_scf|^2 =  9.341E-15

     End of self-consistent calculation

     Convergence has been achieved 


     Representation #  28 mode #  28

     Self-consistent Calculation

      iter #   1 total cpu time :  4732.4 secs   av.it.:   4.7
      thresh= 1.000E-02 alpha_mix =  0.300 |ddv_scf|^2 =  6.545E-08

      iter #   2 total cpu time :  4749.4 secs   av.it.:  11.4
      thresh= 2.558E-05 alpha_mix =  0.300 |ddv_scf|^2 =  5.455E-09

      iter #   3 total cpu time :  4767.3 secs   av.it.:  11.8
      thresh= 7.386E-06 alpha_mix =  0.300 |ddv_scf|^2 =  4.898E-10

      iter #   4 total cpu time :  4784.3 secs   av.it.:  12.3
      thresh= 2.213E-06 alpha_mix =  0.300 |ddv_scf|^2 =  2.084E-11

      iter #   5 total cpu time :  4802.3 secs   av.it.:  12.3
      thresh= 4.565E-07 alpha_mix =  0.300 |ddv_scf|^2 =  1.136E-12

      iter #   6 total cpu time :  4820.3 secs   av.it.:  12.0
      thresh= 1.066E-07 alpha_mix =  0.300 |ddv_scf|^2 =  2.027E-13

      iter #   7 total cpu time :  4836.7 secs   av.it.:  12.2
      thresh= 4.502E-08 alpha_mix =  0.300 |ddv_scf|^2 =  1.158E-14

      iter #   8 total cpu time :  4853.2 secs   av.it.:  11.6
      thresh= 1.076E-08 alpha_mix =  0.300 |ddv_scf|^2 =  4.099E-15

     End of self-consistent calculation

     Convergence has been achieved 


     Representation #  29 mode #  29

     Self-consistent Calculation

      iter #   1 total cpu time :  4878.6 secs   av.it.:   4.5
      thresh= 1.000E-02 alpha_mix =  0.300 |ddv_scf|^2 =  5.541E-08

      iter #   2 total cpu time :  4895.9 secs   av.it.:  11.4
      thresh= 2.354E-05 alpha_mix =  0.300 |ddv_scf|^2 =  4.370E-09

      iter #   3 total cpu time :  4912.1 secs   av.it.:  11.9
      thresh= 6.610E-06 alpha_mix =  0.300 |ddv_scf|^2 =  2.496E-10

      iter #   4 total cpu time :  4930.1 secs   av.it.:  12.2
      thresh= 1.580E-06 alpha_mix =  0.300 |ddv_scf|^2 =  2.286E-11

      iter #   5 total cpu time :  4950.1 secs   av.it.:  12.2
      thresh= 4.781E-07 alpha_mix =  0.300 |ddv_scf|^2 =  7.016E-13

      iter #   6 total cpu time :  4966.0 secs   av.it.:  11.8
      thresh= 8.376E-08 alpha_mix =  0.300 |ddv_scf|^2 =  1.515E-13

      iter #   7 total cpu time :  4984.2 secs   av.it.:  12.4
      thresh= 3.892E-08 alpha_mix =  0.300 |ddv_scf|^2 =  4.211E-15

     End of self-consistent calculation

     Convergence has been achieved 


     Representation #  30 mode #  30

     Self-consistent Calculation

      iter #   1 total cpu time :  5010.0 secs   av.it.:   7.1
      thresh= 1.000E-02 alpha_mix =  0.300 |ddv_scf|^2 =  2.527E-06

      iter #   2 total cpu time :  5026.1 secs   av.it.:  11.3
      thresh= 1.590E-04 alpha_mix =  0.300 |ddv_scf|^2 =  2.134E-07

      iter #   3 total cpu time :  5043.4 secs   av.it.:  11.6
      thresh= 4.620E-05 alpha_mix =  0.300 |ddv_scf|^2 =  3.100E-08

      iter #   4 total cpu time :  5060.6 secs   av.it.:  12.4
      thresh= 1.761E-05 alpha_mix =  0.300 |ddv_scf|^2 =  1.907E-09

      iter #   5 total cpu time :  5077.4 secs   av.it.:  12.1
      thresh= 4.367E-06 alpha_mix =  0.300 |ddv_scf|^2 =  3.627E-11

      iter #   6 total cpu time :  5094.0 secs   av.it.:  11.3
      thresh= 6.022E-07 alpha_mix =  0.300 |ddv_scf|^2 =  9.497E-12

      iter #   7 total cpu time :  5111.5 secs   av.it.:  12.2
      thresh= 3.082E-07 alpha_mix =  0.300 |ddv_scf|^2 =  4.901E-13

      iter #   8 total cpu time :  5129.0 secs   av.it.:  11.8
      thresh= 7.001E-08 alpha_mix =  0.300 |ddv_scf|^2 =  5.118E-14

      iter #   9 total cpu time :  5145.6 secs   av.it.:  12.4
      thresh= 2.262E-08 alpha_mix =  0.300 |ddv_scf|^2 =  2.909E-15

     End of self-consistent calculation

     Convergence has been achieved 


     Representation #  31 mode #  31

     Self-consistent Calculation

      iter #   1 total cpu time :  5172.3 secs   av.it.:   4.6
      thresh= 1.000E-02 alpha_mix =  0.300 |ddv_scf|^2 =  3.590E-08

      iter #   2 total cpu time :  5192.8 secs   av.it.:  11.3
      thresh= 1.895E-05 alpha_mix =  0.300 |ddv_scf|^2 =  4.931E-09

      iter #   3 total cpu time :  5212.7 secs   av.it.:  11.9
      thresh= 7.022E-06 alpha_mix =  0.300 |ddv_scf|^2 =  3.535E-10

      iter #   4 total cpu time :  5232.3 secs   av.it.:  12.1
      thresh= 1.880E-06 alpha_mix =  0.300 |ddv_scf|^2 =  3.365E-11

      iter #   5 total cpu time :  5249.9 secs   av.it.:  12.3
      thresh= 5.801E-07 alpha_mix =  0.300 |ddv_scf|^2 =  1.000E-12

      iter #   6 total cpu time :  5268.8 secs   av.it.:  11.7
      thresh= 1.000E-07 alpha_mix =  0.300 |ddv_scf|^2 =  2.214E-13

      iter #   7 total cpu time :  5288.7 secs   av.it.:  12.3
      thresh= 4.705E-08 alpha_mix =  0.300 |ddv_scf|^2 =  1.004E-14

      iter #   8 total cpu time :  5306.9 secs   av.it.:  12.0
      thresh= 1.002E-08 alpha_mix =  0.300 |ddv_scf|^2 =  1.641E-15

     End of self-consistent calculation

     Convergence has been achieved 


     Representation #  32 mode #  32

     Self-consistent Calculation

      iter #   1 total cpu time :  5335.5 secs   av.it.:   4.9
      thresh= 1.000E-02 alpha_mix =  0.300 |ddv_scf|^2 =  1.251E-07

      iter #   2 total cpu time :  5355.1 secs   av.it.:  11.3
      thresh= 3.536E-05 alpha_mix =  0.300 |ddv_scf|^2 =  7.264E-09

      iter #   3 total cpu time :  5373.8 secs   av.it.:  11.8
      thresh= 8.523E-06 alpha_mix =  0.300 |ddv_scf|^2 =  3.086E-10

      iter #   4 total cpu time :  5391.6 secs   av.it.:  12.3
      thresh= 1.757E-06 alpha_mix =  0.300 |ddv_scf|^2 =  2.201E-11

      iter #   5 total cpu time :  5410.3 secs   av.it.:  12.3
      thresh= 4.692E-07 alpha_mix =  0.300 |ddv_scf|^2 =  9.405E-13

      iter #   6 total cpu time :  5430.1 secs   av.it.:  11.7
      thresh= 9.698E-08 alpha_mix =  0.300 |ddv_scf|^2 =  2.227E-13

      iter #   7 total cpu time :  5451.7 secs   av.it.:  12.3
      thresh= 4.719E-08 alpha_mix =  0.300 |ddv_scf|^2 =  8.022E-15

     End of self-consistent calculation

     Convergence has been achieved 


     Representation #  33 mode #  33

     Self-consistent Calculation

      iter #   1 total cpu time :  5482.1 secs   av.it.:   4.6
      thresh= 1.000E-02 alpha_mix =  0.300 |ddv_scf|^2 =  8.324E-08

      iter #   2 total cpu time :  5497.8 secs   av.it.:  11.3
      thresh= 2.885E-05 alpha_mix =  0.300 |ddv_scf|^2 =  4.574E-09

      iter #   3 total cpu time :  5514.3 secs   av.it.:  11.8
      thresh= 6.763E-06 alpha_mix =  0.300 |ddv_scf|^2 =  2.034E-10

      iter #   4 total cpu time :  5529.4 secs   av.it.:  12.3
      thresh= 1.426E-06 alpha_mix =  0.300 |ddv_scf|^2 =  1.651E-11

      iter #   5 total cpu time :  5549.0 secs   av.it.:  12.2
      thresh= 4.063E-07 alpha_mix =  0.300 |ddv_scf|^2 =  5.547E-13

      iter #   6 total cpu time :  5565.7 secs   av.it.:  11.9
      thresh= 7.448E-08 alpha_mix =  0.300 |ddv_scf|^2 =  1.216E-13

      iter #   7 total cpu time :  5585.5 secs   av.it.:  12.7
      thresh= 3.487E-08 alpha_mix =  0.300 |ddv_scf|^2 =  2.613E-15

     End of self-consistent calculation

     Convergence has been achieved 
 
     Number of q in the star =   12
     List of q in the star:
          1   0.000000000  -0.235702260   0.235702260
          2   0.000000000   0.235702260  -0.235702260
          3   0.000000000   0.235702260   0.235702260
          4   0.000000000  -0.235702260  -0.235702260
          5  -0.235702260   0.235702260   0.000000000
          6   0.235702260   0.235702260  -0.000000000
          7   0.235702260  -0.235702260   0.000000000
          8   0.235702260   0.000000000  -0.235702260
          9   0.235702260  -0.000000000   0.235702260
         10  -0.235702260  -0.000000000  -0.235702260
         11  -0.235702260  -0.000000000   0.235702260
         12  -0.235702260  -0.235702260  -0.000000000

     Diagonalizing the dynamical matrix

     q = (    0.000000000  -0.235702260   0.235702260 ) 

 **************************************************************************
     freq (    1) =       4.131600 [THz] =     137.815339 [cm-1]
     freq (    2) =       5.368196 [THz] =     179.063736 [cm-1]
     freq (    3) =       7.932666 [THz] =     264.605244 [cm-1]
     freq (    4) =      18.407472 [THz] =     614.007177 [cm-1]
     freq (    5) =      23.328140 [THz] =     778.142998 [cm-1]
     freq (    6) =      23.795344 [THz] =     793.727248 [cm-1]
     freq (    7) =      29.380081 [THz] =     980.014018 [cm-1]
     freq (    8) =      29.793118 [THz] =     993.791443 [cm-1]
     freq (    9) =      30.200827 [THz] =    1007.391139 [cm-1]
     freq (   10) =      31.251897 [THz] =    1042.451090 [cm-1]
     freq (   11) =      33.514616 [THz] =    1117.927264 [cm-1]
     freq (   12) =      34.131382 [THz] =    1138.500365 [cm-1]
     freq (   13) =      34.736121 [THz] =    1158.672290 [cm-1]
     freq (   14) =      37.276117 [THz] =    1243.397423 [cm-1]
     freq (   15) =      38.576112 [THz] =    1286.760579 [cm-1]
     freq (   16) =      38.705509 [THz] =    1291.076798 [cm-1]
     freq (   17) =      39.705490 [THz] =    1324.432597 [cm-1]
     freq (   18) =      40.987341 [THz] =    1367.190527 [cm-1]
     freq (   19) =      41.267164 [THz] =    1376.524423 [cm-1]
     freq (   20) =      42.549403 [THz] =    1419.295297 [cm-1]
     freq (   21) =      42.846948 [THz] =    1429.220348 [cm-1]
     freq (   22) =      42.965925 [THz] =    1433.188997 [cm-1]
     freq (   23) =      43.144855 [THz] =    1439.157442 [cm-1]
     freq (   24) =      45.500380 [THz] =    1517.729312 [cm-1]
     freq (   25) =      48.308452 [THz] =    1611.396500 [cm-1]
     freq (   26) =      50.472228 [THz] =    1683.572309 [cm-1]
     freq (   27) =      51.716052 [THz] =    1725.061818 [cm-1]
     freq (   28) =      51.724212 [THz] =    1725.333994 [cm-1]
     freq (   29) =      52.449986 [THz] =    1749.543210 [cm-1]
     freq (   30) =      53.254644 [THz] =    1776.383719 [cm-1]
     freq (   31) =      53.914941 [THz] =    1798.408862 [cm-1]
     freq (   32) =      56.430975 [THz] =    1882.334701 [cm-1]
     freq (   33) =      64.339149 [THz] =    2146.123016 [cm-1]
 **************************************************************************

     Mode symmetry, C_2v (mm2)  point group:

     freq (   1-   1) =        137.8  [cm-1]   --> B_2  D_4  S_4      
     freq (   2-   2) =        179.1  [cm-1]   --> B_1  D_3  S_3      
     freq (   3-   3) =        264.6  [cm-1]   --> A_1  D_1  S_1      
     freq (   4-   4) =        614.0  [cm-1]   --> B_2  D_4  S_4      
     freq (   5-   5) =        778.1  [cm-1]   --> A_1  D_1  S_1      
     freq (   6-   6) =        793.7  [cm-1]   --> A_2  D_2  S_2      
     freq (   7-   7) =        980.0  [cm-1]   --> B_2  D_4  S_4      
     freq (   8-   8) =        993.8  [cm-1]   --> A_1  D_1  S_1      
     freq (   9-   9) =       1007.4  [cm-1]   --> A_2  D_2  S_2      
     freq (  10-  10) =       1042.5  [cm-1]   --> B_1  D_3  S_3      
     freq (  11-  11) =       1117.9  [cm-1]   --> B_2  D_4  S_4      
     freq (  12-  12) =       1138.5  [cm-1]   --> A_1  D_1  S_1      
     freq (  13-  13) =       1158.7  [cm-1]   --> B_1  D_3  S_3      
     freq (  14-  14) =       1243.4  [cm-1]   --> B_2  D_4  S_4      
     freq (  15-  15) =       1286.8  [cm-1]   --> A_2  D_2  S_2      
     freq (  16-  16) =       1291.1  [cm-1]   --> A_1  D_1  S_1      
     freq (  17-  17) =       1324.4  [cm-1]   --> B_1  D_3  S_3      
     freq (  18-  18) =       1367.2  [cm-1]   --> A_2  D_2  S_2      
     freq (  19-  19) =       1376.5  [cm-1]   --> B_1  D_3  S_3      
     freq (  20-  20) =       1419.3  [cm-1]   --> B_2  D_4  S_4      
     freq (  21-  21) =       1429.2  [cm-1]   --> B_2  D_4  S_4      
     freq (  22-  22) =       1433.2  [cm-1]   --> A_2  D_2  S_2      
     freq (  23-  23) =       1439.2  [cm-1]   --> A_1  D_1  S_1      
     freq (  24-  24) =       1517.7  [cm-1]   --> A_1  D_1  S_1      
     freq (  25-  25) =       1611.4  [cm-1]   --> B_1  D_3  S_3      
     freq (  26-  26) =       1683.6  [cm-1]   --> B_2  D_4  S_4      
     freq (  27-  27) =       1725.1  [cm-1]   --> A_1  D_1  S_1      
     freq (  28-  28) =       1725.3  [cm-1]   --> A_2  D_2  S_2      
     freq (  29-  29) =       1749.5  [cm-1]   --> B_1  D_3  S_3      
     freq (  30-  30) =       1776.4  [cm-1]   --> B_2  D_4  S_4      
     freq (  31-  31) =       1798.4  [cm-1]   --> A_1  D_1  S_1      
     freq (  32-  32) =       1882.3  [cm-1]   --> B_2  D_4  S_4      
     freq (  33-  33) =       2146.1  [cm-1]   --> A_1  D_1  S_1      
     Electron-phonon interaction  ...

     Gaussian Broadening:   0.005 Ry, ngauss=   0
     DOS =  5.706849 states/spin/Ry/Unit Cell at Ef= 20.445499 eV
     lambda(    1)=  0.2961   gamma=   27.54 GHz
     lambda(    2)=  0.0530   gamma=    8.32 GHz
     lambda(    3)=  0.2474   gamma=   84.84 GHz
     lambda(    4)=  0.1941   gamma=  358.42 GHz
     lambda(    5)=  0.6516   gamma= 1932.55 GHz
     lambda(    6)=  0.3702   gamma= 1142.44 GHz
     lambda(    7)=  0.0094   gamma=   44.36 GHz
     lambda(    8)=  0.0738   gamma=  356.85 GHz
     lambda(    9)=  0.1553   gamma=  772.14 GHz
     lambda(   10)=  0.0240   gamma=  127.99 GHz
     lambda(   11)=  0.0320   gamma=  195.69 GHz
     lambda(   12)=  0.1487   gamma=  944.31 GHz
     lambda(   13)=  0.0443   gamma=  291.15 GHz
     lambda(   14)=  0.0199   gamma=  150.49 GHz
     lambda(   15)=  0.0926   gamma=  750.84 GHz
     lambda(   16)=  0.0775   gamma=  632.46 GHz
     lambda(   17)=  0.0639   gamma=  548.68 GHz
     lambda(   18)=  0.0145   gamma=  132.68 GHz
     lambda(   19)=  0.0307   gamma=  284.52 GHz
     lambda(   20)=  0.0097   gamma=   95.34 GHz
     lambda(   21)=  0.0119   gamma=  118.59 GHz
     lambda(   22)=  0.0275   gamma=  277.03 GHz
     lambda(   23)=  0.2327   gamma= 2360.63 GHz
     lambda(   24)=  0.2987   gamma= 3369.91 GHz
     lambda(   25)=  0.0802   gamma= 1019.62 GHz
     lambda(   26)=  0.0139   gamma=  192.78 GHz
     lambda(   27)=  0.0166   gamma=  242.34 GHz
     lambda(   28)=  0.0089   gamma=  129.40 GHz
     lambda(   29)=  0.0102   gamma=  152.20 GHz
     lambda(   30)=  0.0053   gamma=   81.58 GHz
     lambda(   31)=  0.0390   gamma=  617.04 GHz
     lambda(   32)=  0.0040   gamma=   70.18 GHz
     lambda(   33)=  0.0345   gamma=  777.62 GHz
     Gaussian Broadening:   0.010 Ry, ngauss=   0
     DOS =  5.493178 states/spin/Ry/Unit Cell at Ef= 20.444376 eV
     lambda(    1)=  0.3197   gamma=   28.63 GHz
     lambda(    2)=  0.0673   gamma=   10.17 GHz
     lambda(    3)=  0.1465   gamma=   48.35 GHz
     lambda(    4)=  0.2689   gamma=  477.96 GHz
     lambda(    5)=  0.4638   gamma= 1324.04 GHz
     lambda(    6)=  0.2764   gamma=  820.93 GHz
     lambda(    7)=  0.0113   gamma=   51.16 GHz
     lambda(    8)=  0.0485   gamma=  226.05 GHz
     lambda(    9)=  0.1014   gamma=  485.18 GHz
     lambda(   10)=  0.0368   gamma=  188.50 GHz
     lambda(   11)=  0.0401   gamma=  236.21 GHz
     lambda(   12)=  0.1191   gamma=  728.01 GHz
     lambda(   13)=  0.0558   gamma=  353.15 GHz
     lambda(   14)=  0.0289   gamma=  210.58 GHz
     lambda(   15)=  0.0836   gamma=  652.70 GHz
     lambda(   16)=  0.0453   gamma=  355.66 GHz
     lambda(   17)=  0.0707   gamma=  584.34 GHz
     lambda(   18)=  0.0097   gamma=   85.58 GHz
     lambda(   19)=  0.0345   gamma=  308.01 GHz
     lambda(   20)=  0.0105   gamma=   99.55 GHz
     lambda(   21)=  0.0118   gamma=  113.74 GHz
     lambda(   22)=  0.0210   gamma=  203.54 GHz
     lambda(   23)=  0.1165   gamma= 1138.05 GHz
     lambda(   24)=  0.1684   gamma= 1828.64 GHz
     lambda(   25)=  0.0912   gamma= 1115.97 GHz
     lambda(   26)=  0.0118   gamma=  158.08 GHz
     lambda(   27)=  0.0155   gamma=  217.73 GHz
     lambda(   28)=  0.0131   gamma=  184.50 GHz
     lambda(   29)=  0.0129   gamma=  185.84 GHz
     lambda(   30)=  0.0068   gamma=  101.26 GHz
     lambda(   31)=  0.0235   gamma=  358.66 GHz
     lambda(   32)=  0.0063   gamma=  104.43 GHz
     lambda(   33)=  0.0239   gamma=  518.94 GHz
     Gaussian Broadening:   0.015 Ry, ngauss=   0
     DOS =  5.643591 states/spin/Ry/Unit Cell at Ef= 20.442941 eV
     lambda(    1)=  0.3528   gamma=   32.46 GHz
     lambda(    2)=  0.0757   gamma=   11.75 GHz
     lambda(    3)=  0.1201   gamma=   40.72 GHz
     lambda(    4)=  0.3352   gamma=  612.17 GHz
     lambda(    5)=  0.3914   gamma= 1147.79 GHz
     lambda(    6)=  0.2577   gamma=  786.33 GHz
     lambda(    7)=  0.0125   gamma=   58.08 GHz
     lambda(    8)=  0.0419   gamma=  200.51 GHz
     lambda(    9)=  0.0872   gamma=  428.53 GHz
     lambda(   10)=  0.0407   gamma=  214.24 GHz
     lambda(   11)=  0.0456   gamma=  276.18 GHz
     lambda(   12)=  0.1175   gamma=  737.73 GHz
     lambda(   13)=  0.0642   gamma=  417.29 GHz
     lambda(   14)=  0.0328   gamma=  245.34 GHz
     lambda(   15)=  0.0914   gamma=  733.02 GHz
     lambda(   16)=  0.0357   gamma=  288.12 GHz
     lambda(   17)=  0.0699   gamma=  593.68 GHz
     lambda(   18)=  0.0094   gamma=   84.86 GHz
     lambda(   19)=  0.0364   gamma=  333.70 GHz
     lambda(   20)=  0.0127   gamma=  124.34 GHz
     lambda(   21)=  0.0129   gamma=  128.04 GHz
     lambda(   22)=  0.0202   gamma=  200.77 GHz
     lambda(   23)=  0.0839   gamma=  841.57 GHz
     lambda(   24)=  0.1396   gamma= 1557.61 GHz
     lambda(   25)=  0.0957   gamma= 1203.14 GHz
     lambda(   26)=  0.0119   gamma=  163.92 GHz
     lambda(   27)=  0.0175   gamma=  252.75 GHz
     lambda(   28)=  0.0156   gamma=  224.42 GHz
     lambda(   29)=  0.0139   gamma=  206.60 GHz
     lambda(   30)=  0.0077   gamma=  117.78 GHz
     lambda(   31)=  0.0190   gamma=  297.35 GHz
     lambda(   32)=  0.0088   gamma=  151.45 GHz
     lambda(   33)=  0.0196   gamma=  437.82 GHz
     Gaussian Broadening:   0.020 Ry, ngauss=   0
     DOS =  5.693100 states/spin/Ry/Unit Cell at Ef= 20.442131 eV
     lambda(    1)=  0.3761   gamma=   34.90 GHz
     lambda(    2)=  0.0766   gamma=   12.00 GHz
     lambda(    3)=  0.1060   gamma=   36.27 GHz
     lambda(    4)=  0.3795   gamma=  699.03 GHz
     lambda(    5)=  0.3536   gamma= 1046.10 GHz
     lambda(    6)=  0.2457   gamma=  756.37 GHz
     lambda(    7)=  0.0131   gamma=   61.68 GHz
     lambda(    8)=  0.0386   gamma=  186.48 GHz
     lambda(    9)=  0.0789   gamma=  391.22 GHz
     lambda(   10)=  0.0406   gamma=  215.47 GHz
     lambda(   11)=  0.0479   gamma=  292.52 GHz
     lambda(   12)=  0.1151   gamma=  728.88 GHz
     lambda(   13)=  0.0655   gamma=  429.52 GHz
     lambda(   14)=  0.0339   gamma=  256.44 GHz
     lambda(   15)=  0.0941   gamma=  761.16 GHz
     lambda(   16)=  0.0324   gamma=  263.63 GHz
     lambda(   17)=  0.0678   gamma=  581.13 GHz
     lambda(   18)=  0.0091   gamma=   83.51 GHz
     lambda(   19)=  0.0361   gamma=  334.67 GHz
     lambda(   20)=  0.0136   gamma=  133.72 GHz
     lambda(   21)=  0.0134   gamma=  133.45 GHz
     lambda(   22)=  0.0200   gamma=  201.21 GHz
     lambda(   23)=  0.0718   gamma=  726.51 GHz
     lambda(   24)=  0.1236   gamma= 1391.31 GHz
     lambda(   25)=  0.0966   gamma= 1225.14 GHz
     lambda(   26)=  0.0120   gamma=  166.14 GHz
     lambda(   27)=  0.0181   gamma=  263.67 GHz
     lambda(   28)=  0.0160   gamma=  232.43 GHz
     lambda(   29)=  0.0137   gamma=  205.43 GHz
     lambda(   30)=  0.0083   gamma=  127.53 GHz
     lambda(   31)=  0.0171   gamma=  270.00 GHz
     lambda(   32)=  0.0107   gamma=  185.06 GHz
     lambda(   33)=  0.0176   gamma=  396.87 GHz
     Gaussian Broadening:   0.025 Ry, ngauss=   0
     DOS =  5.666404 states/spin/Ry/Unit Cell at Ef= 20.442478 eV
     lambda(    1)=  0.3839   gamma=   35.46 GHz
     lambda(    2)=  0.0754   gamma=   11.76 GHz
     lambda(    3)=  0.0967   gamma=   32.94 GHz
     lambda(    4)=  0.4050   gamma=  742.63 GHz
     lambda(    5)=  0.3278   gamma=  965.39 GHz
     lambda(    6)=  0.2372   gamma=  726.76 GHz
     lambda(    7)=  0.0133   gamma=   62.16 GHz
     lambda(    8)=  0.0364   gamma=  174.68 GHz
     lambda(    9)=  0.0728   gamma=  359.52 GHz
     lambda(   10)=  0.0397   gamma=  209.88 GHz
     lambda(   11)=  0.0487   gamma=  296.20 GHz
     lambda(   12)=  0.1124   gamma=  708.68 GHz
     lambda(   13)=  0.0648   gamma=  422.85 GHz
     lambda(   14)=  0.0350   gamma=  263.28 GHz
     lambda(   15)=  0.0933   gamma=  751.46 GHz
     lambda(   16)=  0.0307   gamma=  248.83 GHz
     lambda(   17)=  0.0663   gamma=  565.25 GHz
     lambda(   18)=  0.0090   gamma=   81.79 GHz
     lambda(   19)=  0.0353   gamma=  325.57 GHz
     lambda(   20)=  0.0140   gamma=  136.94 GHz
     lambda(   21)=  0.0134   gamma=  133.41 GHz
     lambda(   22)=  0.0197   gamma=  197.14 GHz
     lambda(   23)=  0.0652   gamma=  657.02 GHz
     lambda(   24)=  0.1123   gamma= 1257.74 GHz
     lambda(   25)=  0.0960   gamma= 1212.31 GHz
     lambda(   26)=  0.0120   gamma=  165.43 GHz
     lambda(   27)=  0.0182   gamma=  263.02 GHz
     lambda(   28)=  0.0161   gamma=  232.60 GHz
     lambda(   29)=  0.0134   gamma=  199.33 GHz
     lambda(   30)=  0.0088   gamma=  134.44 GHz
     lambda(   31)=  0.0160   gamma=  252.28 GHz
     lambda(   32)=  0.0118   gamma=  203.34 GHz
     lambda(   33)=  0.0166   gamma=  371.92 GHz
     Gaussian Broadening:   0.030 Ry, ngauss=   0
     DOS =  5.611139 states/spin/Ry/Unit Cell at Ef= 20.443739 eV
     lambda(    1)=  0.3822   gamma=   34.96 GHz
     lambda(    2)=  0.0741   gamma=   11.44 GHz
     lambda(    3)=  0.0903   gamma=   30.43 GHz
     lambda(    4)=  0.4178   gamma=  758.46 GHz
     lambda(    5)=  0.3096   gamma=  902.89 GHz
     lambda(    6)=  0.2318   gamma=  703.31 GHz
     lambda(    7)=  0.0132   gamma=   61.26 GHz
     lambda(    8)=  0.0347   gamma=  165.20 GHz
     lambda(    9)=  0.0682   gamma=  333.25 GHz
     lambda(   10)=  0.0391   gamma=  204.56 GHz
     lambda(   11)=  0.0491   gamma=  295.75 GHz
     lambda(   12)=  0.1103   gamma=  688.28 GHz
     lambda(   13)=  0.0639   gamma=  412.90 GHz
     lambda(   14)=  0.0361   gamma=  268.68 GHz
     lambda(   15)=  0.0913   gamma=  728.08 GHz
     lambda(   16)=  0.0298   gamma=  238.98 GHz
     lambda(   17)=  0.0652   gamma=  550.45 GHz
     lambda(   18)=  0.0089   gamma=   80.35 GHz
     lambda(   19)=  0.0345   gamma=  315.07 GHz
     lambda(   20)=  0.0142   gamma=  137.85 GHz
     lambda(   21)=  0.0134   gamma=  131.60 GHz
     lambda(   22)=  0.0193   gamma=  191.27 GHz
     lambda(   23)=  0.0613   gamma=  611.86 GHz
     lambda(   24)=  0.1038   gamma= 1151.46 GHz
     lambda(   25)=  0.0949   gamma= 1186.62 GHz
     lambda(   26)=  0.0121   gamma=  164.58 GHz
     lambda(   27)=  0.0183   gamma=  261.64 GHz
     lambda(   28)=  0.0162   gamma=  231.94 GHz
     lambda(   29)=  0.0131   gamma=  193.56 GHz
     lambda(   30)=  0.0092   gamma=  139.84 GHz
     lambda(   31)=  0.0155   gamma=  240.80 GHz
     lambda(   32)=  0.0124   gamma=  211.85 GHz
     lambda(   33)=  0.0161   gamma=  356.71 GHz
     Gaussian Broadening:   0.035 Ry, ngauss=   0
     DOS =  5.552244 states/spin/Ry/Unit Cell at Ef= 20.445745 eV
     lambda(    1)=  0.3778   gamma=   34.19 GHz
     lambda(    2)=  0.0730   gamma=   11.16 GHz
     lambda(    3)=  0.0855   gamma=   28.51 GHz
     lambda(    4)=  0.4242   gamma=  762.03 GHz
     lambda(    5)=  0.2979   gamma=  859.67 GHz
     lambda(    6)=  0.2290   gamma=  687.38 GHz
     lambda(    7)=  0.0131   gamma=   60.15 GHz
     lambda(    8)=  0.0336   gamma=  158.05 GHz
     lambda(    9)=  0.0647   gamma=  312.71 GHz
     lambda(   10)=  0.0388   gamma=  201.11 GHz
     lambda(   11)=  0.0496   gamma=  295.60 GHz
     lambda(   12)=  0.1088   gamma=  672.24 GHz
     lambda(   13)=  0.0632   gamma=  404.41 GHz
     lambda(   14)=  0.0370   gamma=  272.70 GHz
     lambda(   15)=  0.0892   gamma=  703.81 GHz
     lambda(   16)=  0.0293   gamma=  232.66 GHz
     lambda(   17)=  0.0644   gamma=  538.43 GHz
     lambda(   18)=  0.0089   gamma=   79.52 GHz
     lambda(   19)=  0.0339   gamma=  306.18 GHz
     lambda(   20)=  0.0144   gamma=  138.19 GHz
     lambda(   21)=  0.0133   gamma=  129.57 GHz
     lambda(   22)=  0.0190   gamma=  185.68 GHz
     lambda(   23)=  0.0591   gamma=  583.73 GHz
     lambda(   24)=  0.0974   gamma= 1069.49 GHz
     lambda(   25)=  0.0938   gamma= 1161.06 GHz
     lambda(   26)=  0.0122   gamma=  164.25 GHz
     lambda(   27)=  0.0185   gamma=  262.50 GHz
     lambda(   28)=  0.0164   gamma=  231.95 GHz
     lambda(   29)=  0.0130   gamma=  189.30 GHz
     lambda(   30)=  0.0096   gamma=  144.09 GHz
     lambda(   31)=  0.0152   gamma=  233.96 GHz
     lambda(   32)=  0.0127   gamma=  215.10 GHz
     lambda(   33)=  0.0158   gamma=  347.87 GHz
     Gaussian Broadening:   0.040 Ry, ngauss=   0
     DOS =  5.498034 states/spin/Ry/Unit Cell at Ef= 20.448391 eV
     lambda(    1)=  0.3740   gamma=   33.52 GHz
     lambda(    2)=  0.0723   gamma=   10.93 GHz
     lambda(    3)=  0.0817   gamma=   26.99 GHz
     lambda(    4)=  0.4285   gamma=  762.33 GHz
     lambda(    5)=  0.2916   gamma=  833.30 GHz
     lambda(    6)=  0.2280   gamma=  677.79 GHz
     lambda(    7)=  0.0131   gamma=   59.18 GHz
     lambda(    8)=  0.0328   gamma=  152.73 GHz
     lambda(    9)=  0.0621   gamma=  297.23 GHz
     lambda(   10)=  0.0388   gamma=  199.12 GHz
     lambda(   11)=  0.0504   gamma=  297.09 GHz
     lambda(   12)=  0.1080   gamma=  660.72 GHz
     lambda(   13)=  0.0628   gamma=  397.98 GHz
     lambda(   14)=  0.0378   gamma=  275.59 GHz
     lambda(   15)=  0.0873   gamma=  682.20 GHz
     lambda(   16)=  0.0291   gamma=  228.76 GHz
     lambda(   17)=  0.0639   gamma=  529.13 GHz
     lambda(   18)=  0.0090   gamma=   79.31 GHz
     lambda(   19)=  0.0335   gamma=  299.13 GHz
     lambda(   20)=  0.0146   gamma=  138.69 GHz
     lambda(   21)=  0.0133   gamma=  127.72 GHz
     lambda(   22)=  0.0187   gamma=  180.87 GHz
     lambda(   23)=  0.0580   gamma=  566.99 GHz
     lambda(   24)=  0.0926   gamma= 1006.76 GHz
     lambda(   25)=  0.0930   gamma= 1138.90 GHz
     lambda(   26)=  0.0123   gamma=  164.41 GHz
     lambda(   27)=  0.0189   gamma=  265.36 GHz
     lambda(   28)=  0.0166   gamma=  232.63 GHz
     lambda(   29)=  0.0129   gamma=  186.45 GHz
     lambda(   30)=  0.0099   gamma=  147.32 GHz
     lambda(   31)=  0.0151   gamma=  230.30 GHz
     lambda(   32)=  0.0129   gamma=  215.70 GHz
     lambda(   33)=  0.0158   gamma=  342.93 GHz
     Gaussian Broadening:   0.045 Ry, ngauss=   0
     DOS =  5.450225 states/spin/Ry/Unit Cell at Ef= 20.451582 eV
     lambda(    1)=  0.3717   gamma=   33.02 GHz
     lambda(    2)=  0.0717   gamma=   10.76 GHz
     lambda(    3)=  0.0786   gamma=   25.74 GHz
     lambda(    4)=  0.4327   gamma=  763.08 GHz
     lambda(    5)=  0.2893   gamma=  819.40 GHz
     lambda(    6)=  0.2284   gamma=  672.99 GHz
     lambda(    7)=  0.0130   gamma=   58.38 GHz
     lambda(    8)=  0.0322   gamma=  148.69 GHz
     lambda(    9)=  0.0602   gamma=  285.71 GHz
     lambda(   10)=  0.0389   gamma=  197.89 GHz
     lambda(   11)=  0.0513   gamma=  300.15 GHz
     lambda(   12)=  0.1076   gamma=  652.52 GHz
     lambda(   13)=  0.0626   gamma=  393.28 GHz
     lambda(   14)=  0.0384   gamma=  277.75 GHz
     lambda(   15)=  0.0857   gamma=  663.45 GHz
     lambda(   16)=  0.0290   gamma=  226.47 GHz
     lambda(   17)=  0.0636   gamma=  521.93 GHz
     lambda(   18)=  0.0091   gamma=   79.59 GHz
     lambda(   19)=  0.0331   gamma=  293.53 GHz
     lambda(   20)=  0.0148   gamma=  139.62 GHz
     lambda(   21)=  0.0132   gamma=  126.14 GHz
     lambda(   22)=  0.0184   gamma=  176.77 GHz
     lambda(   23)=  0.0575   gamma=  557.21 GHz
     lambda(   24)=  0.0889   gamma=  958.34 GHz
     lambda(   25)=  0.0922   gamma= 1119.88 GHz
     lambda(   26)=  0.0124   gamma=  164.96 GHz
     lambda(   27)=  0.0194   gamma=  269.43 GHz
     lambda(   28)=  0.0168   gamma=  233.72 GHz
     lambda(   29)=  0.0129   gamma=  184.65 GHz
     lambda(   30)=  0.0101   gamma=  149.69 GHz
     lambda(   31)=  0.0151   gamma=  228.62 GHz
     lambda(   32)=  0.0130   gamma=  215.10 GHz
     lambda(   33)=  0.0158   gamma=  340.20 GHz
     Gaussian Broadening:   0.050 Ry, ngauss=   0
     DOS =  5.408705 states/spin/Ry/Unit Cell at Ef= 20.455233 eV
     lambda(    1)=  0.3705   gamma=   32.67 GHz
     lambda(    2)=  0.0714   gamma=   10.63 GHz
     lambda(    3)=  0.0760   gamma=   24.69 GHz
     lambda(    4)=  0.4372   gamma=  765.17 GHz
     lambda(    5)=  0.2895   gamma=  813.62 GHz
     lambda(    6)=  0.2297   gamma=  671.74 GHz
     lambda(    7)=  0.0130   gamma=   57.75 GHz
     lambda(    8)=  0.0317   gamma=  145.47 GHz
     lambda(    9)=  0.0588   gamma=  277.15 GHz
     lambda(   10)=  0.0391   gamma=  197.03 GHz
     lambda(   11)=  0.0525   gamma=  304.39 GHz
     lambda(   12)=  0.1075   gamma=  646.60 GHz
     lambda(   13)=  0.0626   gamma=  389.99 GHz
     lambda(   14)=  0.0389   gamma=  279.51 GHz
     lambda(   15)=  0.0842   gamma=  647.15 GHz
     lambda(   16)=  0.0291   gamma=  225.23 GHz
     lambda(   17)=  0.0634   gamma=  516.33 GHz
     lambda(   18)=  0.0092   gamma=   80.23 GHz
     lambda(   19)=  0.0329   gamma=  289.02 GHz
     lambda(   20)=  0.0151   gamma=  141.02 GHz
     lambda(   21)=  0.0132   gamma=  124.87 GHz
     lambda(   22)=  0.0182   gamma=  173.23 GHz
     lambda(   23)=  0.0574   gamma=  551.46 GHz
     lambda(   24)=  0.0861   gamma=  920.55 GHz
     lambda(   25)=  0.0915   gamma= 1103.29 GHz
     lambda(   26)=  0.0126   gamma=  165.84 GHz
     lambda(   27)=  0.0198   gamma=  274.13 GHz
     lambda(   28)=  0.0170   gamma=  235.12 GHz
     lambda(   29)=  0.0129   gamma=  183.61 GHz
     lambda(   30)=  0.0103   gamma=  151.41 GHz
     lambda(   31)=  0.0152   gamma=  228.11 GHz
     lambda(   32)=  0.0130   gamma=  214.05 GHz
     lambda(   33)=  0.0158   gamma=  338.69 GHz
 
 
     Number of q in the star =   12
     List of q in the star:
          1   0.000000000  -0.235702260   0.235702260
          2   0.000000000   0.235702260  -0.235702260
          3   0.000000000   0.235702260   0.235702260
          4   0.000000000  -0.235702260  -0.235702260
          5  -0.235702260   0.235702260   0.000000000
          6   0.235702260   0.235702260  -0.000000000
          7   0.235702260  -0.235702260   0.000000000
          8   0.235702260   0.000000000  -0.235702260
          9   0.235702260  -0.000000000   0.235702260
         10  -0.235702260  -0.000000000  -0.235702260
         11  -0.235702260  -0.000000000   0.235702260
         12  -0.235702260  -0.235702260  -0.000000000
 
     init_run     :      0.44s CPU      0.74s WALL (       1 calls)
     electrons    :     19.57s CPU     24.17s WALL (       1 calls)

     Called by init_run:
     wfcinit      :      0.00s CPU      0.11s WALL (       1 calls)
     potinit      :      0.22s CPU      0.37s WALL (       1 calls)
     hinit0       :      0.10s CPU      0.11s WALL (       1 calls)

     Called by electrons:
     c_bands      :     19.55s CPU     24.14s WALL (       1 calls)
     v_of_rho     :      0.02s CPU      0.06s WALL (       2 calls)
     newd         :      0.04s CPU      0.07s WALL (       2 calls)
     PAW_pot      :      0.40s CPU      0.49s WALL (       2 calls)

     Called by c_bands:
     init_us_2    :      4.71s CPU      5.42s WALL (   50432 calls)
     cegterg      :     12.15s CPU     12.82s WALL (     473 calls)

     Called by *egterg:
     cdiaghg      :      3.86s CPU      4.08s WALL (    7400 calls)
     h_psi        :   1127.86s CPU   1521.95s WALL (  665445 calls)
     s_psi        :     28.48s CPU     31.02s WALL ( 1360009 calls)
     g_psi        :      0.04s CPU      0.04s WALL (    7144 calls)

     Called by h_psi:
     h_psi:calbec :     19.57s CPU     21.24s WALL (  665445 calls)
     vloc_psi     :   1088.44s CPU   1479.17s WALL (  665445 calls)
     add_vuspsi   :     14.62s CPU     15.93s WALL (  665445 calls)

     General routines
     calbec       :     94.90s CPU     99.14s WALL ( 1419913 calls)
     fft          :      2.10s CPU      2.76s WALL (    6115 calls)
     ffts         :     90.95s CPU    142.60s WALL (    5959 calls)
     fftw         :   1674.51s CPU   2420.83s WALL (11303352 calls)
     interpolate  :      0.86s CPU      1.21s WALL (     613 calls)
     davcio       :     14.63s CPU    766.20s WALL (  210945 calls)
 
     Parallel routines
 
     PHONON       :      1h 2m CPU      1h33m WALL

     INITIALIZATION: 
     phq_setup    :      0.02s CPU      0.09s WALL (       1 calls)
     phq_init     :     21.16s CPU     24.75s WALL (       1 calls)
 
     phq_init     :     21.16s CPU     24.75s WALL (       1 calls)
     set_drhoc    :      0.00s CPU      0.00s WALL (       3 calls)
     init_vloc    :      0.01s CPU      0.01s WALL (       2 calls)
     init_us_1    :      0.15s CPU      0.21s WALL (       2 calls)
     init_us_2    :      4.71s CPU      5.42s WALL (   50432 calls)
     newd         :      0.04s CPU      0.07s WALL (       2 calls)
     dvanqq       :      1.80s CPU      1.81s WALL (       1 calls)
     drho         :     13.36s CPU     16.01s WALL (       1 calls)
     drhous       :      5.69s CPU      6.84s WALL (       1 calls)
     nldyntot     :      0.46s CPU      0.46s WALL (       1 calls)
 
     DYNAMICAL MATRIX:
     dynmat0      :      3.37s CPU      3.96s WALL (       1 calls)
     dynmat_us    :      3.32s CPU      3.89s WALL (       1 calls)
     addusdynmat  :      0.00s CPU      0.00s WALL (       1 calls)
     d2ionq       :      0.04s CPU      0.04s WALL (       1 calls)
     dynmatcc     :      0.01s CPU      0.01s WALL (       1 calls)
     phqscf       :   3656.72s CPU   5543.71s WALL (       1 calls)
     dynmatrix    :      0.29s CPU      0.36s WALL (       1 calls)
 
     phqscf       :   3656.72s CPU   5543.71s WALL (       1 calls)
     solve_linter :   3601.84s CPU   5461.96s WALL (      33 calls)
     sth_kernel   :   2982.97s CPU   4304.28s WALL (     289 calls)
     h_prec       :    918.88s CPU    933.68s WALL (   36992 calls)
     apply_dpot_b :    396.38s CPU    611.74s WALL (   36992 calls)
     ortho        :     57.51s CPU     58.89s WALL (   36992 calls)
     cgsolve      :   1205.97s CPU   1607.22s WALL (   36992 calls)
     incdrhoscf   :    300.52s CPU    451.21s WALL (   36992 calls)
                                        0.00s GPU  (   36992 calls)
     addusddens   :     31.74s CPU     38.47s WALL (     322 calls)
     vpsifft      :     90.69s CPU    142.05s WALL (    4224 calls)
     dv_of_drho   :      2.55s CPU      2.93s WALL (     289 calls)
     mix_pot      :     47.71s CPU    162.68s WALL (     289 calls)
     drhodv       :     54.82s CPU     62.49s WALL (      33 calls)
     psymdvscf    :     36.47s CPU     36.87s WALL (     289 calls)
     newdq        :     25.64s CPU     25.86s WALL (     289 calls)
     adddvscf     :      4.59s CPU      5.05s WALL (   36992 calls)
     com_dvloc    :     90.56s CPU    141.94s WALL (    5346 calls)
                                        0.00s GPU  (    5346 calls)
     addcore      :      0.44s CPU      0.55s WALL (    1411 calls)
                                        0.00s GPU  (    1411 calls)
     drhodvus     :     18.02s CPU     51.31s WALL (      33 calls)
 
     dvqpsi_us    :    109.49s CPU    161.80s WALL (    4224 calls)
                                        0.00s GPU  (    4224 calls)
     dvqpsi_us_on :     12.89s CPU     13.06s WALL (    4224 calls)
 
     add_vuspsi   :     14.62s CPU     15.93s WALL (  665445 calls)
     addusdbec    :      2.38s CPU      2.57s WALL (   41216 calls)
 
     drhodvus     :     18.02s CPU     51.31s WALL (      33 calls)
 
      Electron-phonon coupling
     elphel       :    103.26s CPU    190.54s WALL (      33 calls)
     elphsum      :     27.11s CPU     27.76s WALL (       1 calls)
 
      General routines
     calbec       :     94.90s CPU     99.14s WALL ( 1419913 calls)
     fft          :      2.10s CPU      2.76s WALL (    6115 calls)
     ffts         :     90.95s CPU    142.60s WALL (    5959 calls)
     fftw         :   1674.51s CPU   2420.83s WALL (11303352 calls)
     davcio       :     14.63s CPU    766.20s WALL (  210945 calls)
     write_rec    :      0.45s CPU    193.38s WALL (     322 calls)
 
      Additional routines
     ch_psi       :   1193.58s CPU   1593.57s WALL (  657572 calls)
     last         :     51.78s CPU     56.33s WALL (  657572 calls)
     Hesh         :      1.81s CPU      2.02s WALL (  657572 calls)
     ch_psi_all_k :     46.92s CPU     51.02s WALL (  657572 calls)
                                        0.00s GPU  (  657572 calls)
     ch_psi_calbe :     15.76s CPU     17.04s WALL (  657572 calls)
                                        0.00s GPU  (  657572 calls)
     h_psi_bgrp   :   1129.23s CPU   1523.42s WALL (  665445 calls)
     h_psi        :   1127.86s CPU   1521.95s WALL (  665445 calls)
     h_psi:pot    :   1125.56s CPU   1519.40s WALL (  665445 calls)
     h_psi:calbec :     19.57s CPU     21.24s WALL (  665445 calls)
     s_psi_bgrp   :     32.81s CPU     35.66s WALL ( 1360009 calls)
     s_psi        :     28.48s CPU     31.02s WALL ( 1360009 calls)
 
 
     PHONON       :      1h 2m CPU      1h33m WALL

 
   This run was terminated on:  15:34:41  22Oct2025            

=------------------------------------------------------------------------------=
   JOB DONE.
=------------------------------------------------------------------------------=
