
     Program PHONON v.7.4.1 starts on 22Oct2025 at 12:38: 0 

     This program is part of the open-source Quantum ESPRESSO suite
     for quantum simulation of materials; please cite
         "P. Giannozzi et al., J. Phys.:Condens. Matter 21 395502 (2009);
         "P. Giannozzi et al., J. Phys.:Condens. Matter 29 465901 (2017);
         "P. Giannozzi et al., J. Chem. Phys. 152 154105 (2020);
          URL http://www.quantum-espresso.org", 
     in publications or presentations arising from this work. More details at
     http://www.quantum-espresso.org/quote

     Parallel version (MPI), running on    48 processors

     MPI processes distributed on     1 nodes
     180842 MiB available memory on the printing compute node when the environment starts
 
     Waiting for input...
     Reading input from standard input

     Reading xml data from directory:

     ./tmp/La1H10.save/
 
     K-points division:     npool     =       4
     R & G space division:  proc/nbgrp/npool/nimage =      12
     Subspace diagonalization in iterative solution of the eigenvalue problem:
     a serial algorithm will be used

     file La.pbe-spfn-kjpaw_psl.1.0.0.UPF: wavefunction(s)  5S 5D 4F renormalized
     file H.pbe-kjpaw_psl.1.0.0.UPF: wavefunction(s)  1S renormalized

     IMPORTANT: XC functional enforced from input :
     Exchange-correlation= PBE
                           (   1   4   3   4   0   0   0)
     Any further DFT definition will be discarded
     Please, verify this is what you really want

 
     Parallelization info
     --------------------
     sticks:   dense  smooth     PW     G-vecs:    dense   smooth      PW
     Min         231      77     23                 8029     1540     259
     Max         232      78     24                 8031     1543     261
     Sum        2773     925    283                96353    18499    3119
 
     Using Slab Decomposition
 
     Reading collected, re-writing distributed wavefunctions in ./tmp/


     Dynamical matrices for ( 6, 6, 6)  uniform grid of q-points
     (  16 q-points):
       N         xq(1)         xq(2)         xq(3) 
       1   0.000000000   0.000000000   0.000000000
       2   0.117851130   0.117851130  -0.117851130
       3   0.235702260   0.235702260  -0.235702260
       4  -0.353553391  -0.353553391   0.353553391
       5   0.235702260   0.000000000   0.000000000
       6   0.353553391   0.117851130  -0.117851130
       7  -0.235702260  -0.471404521   0.471404521
       8  -0.117851130  -0.353553391   0.353553391
       9   0.000000000  -0.235702260   0.235702260
      10   0.471404521   0.000000000   0.000000000
      11  -0.117851130  -0.589255651   0.589255651
      12  -0.000000000  -0.471404521   0.471404521
      13  -0.707106781   0.000000000   0.000000000
      14  -0.235702260  -0.471404521   0.707106781
      15  -0.117851130  -0.353553391   0.589255651
      16  -0.707106781   0.235702260   0.000000000

     Number and degeneracy of irreps per q-point
       N         xq(1)         xq(2)         xq(3)   N irreps
       1   0.000000000   0.000000000   0.000000000      13
        1   2   3   3   3   3   1   2   3   3   3   3   3
       2   0.117851130   0.117851130  -0.117851130      22
        1   1   1   1   1   1   1   1   1   1   1   2   2   2   2   2   2   2
   2   2   2   2
       3   0.235702260   0.235702260  -0.235702260      22
        1   1   1   1   1   1   1   1   1   1   1   2   2   2   2   2   2   2
   2   2   2   2
       4  -0.353553391  -0.353553391   0.353553391      22
        1   1   1   1   1   2   2   2   2   2   1   1   1   1   1   1   2   2
   2   2   2   2
       5   0.235702260   0.000000000   0.000000000      24
        1   1   1   1   1   1   1   1   1   1   1   1   1   1   1   2   2   2
   2   2   2   2   2   2
       6   0.353553391   0.117851130  -0.117851130      33
     No degeneracy
       7  -0.235702260  -0.471404521   0.471404521      33
     No degeneracy
       8  -0.117851130  -0.353553391   0.353553391      33
     No degeneracy
       9   0.000000000  -0.235702260   0.235702260      33
     No degeneracy
      10   0.471404521   0.000000000   0.000000000      24
        1   1   1   1   1   1   1   1   1   1   1   1   1   1   1   2   2   2
   2   2   2   2   2   2
      11  -0.117851130  -0.589255651   0.589255651      33
     No degeneracy
      12  -0.000000000  -0.471404521   0.471404521      33
     No degeneracy
      13  -0.707106781   0.000000000   0.000000000      24
        1   1   1   1   1   1   1   2   2   2   2   1   1   1   1   1   1   1
   1   2   2   2   2   2
      14  -0.235702260  -0.471404521   0.707106781      33
     No degeneracy
      15  -0.117851130  -0.353553391   0.589255651      33
     No degeneracy
Eigenvectors exchange needed    7   16
      16  -0.707106781   0.235702260   0.000000000      32
        1   1   1   1   1   1   2   1   1   1   1   1   1   1   1   1   1   1
   1   1   1   1   1   1   1   1   1   1   1   1   1   1

     Saving dvscf to file. Distribute only q points, not irreducible representations.

     Calculation of q =    0.0000000   0.0000000   0.0000000

     Electron-phonon coefficients for La1H10                                    

     bravais-lattice index     =            0
     lattice parameter (alat)  =       6.4716  a.u.
     unit-cell volume          =     191.6541 (a.u.)^3
     number of atoms/cell      =           11
     number of atomic types    =            2
     kinetic-energy cut-off    =      80.0000  Ry
     charge density cut-off    =     960.0000  Ry
     convergence threshold     =      1.0E-14
     beta                      =       0.3000
     number of iterations used =            4
     Exchange-correlation= PBE
                           (   1   4   3   4   0   0   0)


     celldm(1)=    6.47159  celldm(2)=    0.00000  celldm(3)=    0.00000
     celldm(4)=    0.00000  celldm(5)=    0.00000  celldm(6)=    0.00000

     crystal axes: (cart. coord. in units of alat)
               a(1) = (  0.0000  0.7071  0.7071 )  
               a(2) = (  0.7071  0.0000  0.7071 )  
               a(3) = (  0.7071  0.7071  0.0000 )  

     reciprocal axes: (cart. coord. in units 2 pi/alat)
               b(1) = ( -0.7071  0.7071  0.7071 )  
               b(2) = (  0.7071 -0.7071  0.7071 )  
               b(3) = (  0.7071  0.7071 -0.7071 )  


     Atoms inside the unit cell: 

     Cartesian axes

     site n.  atom      mass           positions (alat units)
        1  La    138.9055   tau(    1) = (    0.00000    0.00000    0.00000  )
        2  H       1.0079   tau(    2) = (    0.35355    0.35355    0.35355  )
        3  H       1.0079   tau(    3) = (    1.06066    1.06066    1.06066  )
        4  H       1.0079   tau(    4) = (    0.87769    0.87769    0.87769  )
        5  H       1.0079   tau(    5) = (    0.53653    0.53653    0.53653  )
        6  H       1.0079   tau(    6) = (    0.53653    0.53653    0.87769  )
        7  H       1.0079   tau(    7) = (    0.87769    0.87769    0.53653  )
        8  H       1.0079   tau(    8) = (    0.53653    0.87769    0.53653  )
        9  H       1.0079   tau(    9) = (    0.87769    0.53653    0.87769  )
       10  H       1.0079   tau(   10) = (    0.87769    0.53653    0.53653  )
       11  H       1.0079   tau(   11) = (    0.53653    0.87769    0.87769  )

     Computing dynamical matrix for 
                    q = (   0.0000000   0.0000000   0.0000000 )
 
     49 Sym.Ops. (with q -> -q+G )


     G cutoff = 1018.4355  (   8029 G-vectors)     FFT grid: ( 64, 64, 64)
     G cutoff =  339.4785  (   1542 G-vectors)  smooth grid: ( 40, 40, 40)

     number of k points=    72  Gaussian smearing, width (Ry)=  0.0200

     PseudoPot. # 1 for La read from file:
     /work/home/mayuan/workplace/1.typical_hydride/003.MH10/1.LaH10/250/Tc-666-paw/pp/La.pbe-spfn-kjpaw_psl.1.0.0.UPF
     MD5 check sum: ccc10218a00d76b68822f6b8f5772390
     Pseudo is Projector augmented-wave + core cor, Zval = 11.0
     Generated using 'atomic' code by A. Dal Corso  v.7.1
     Shape of augmentation charge: PSQ
     Using radial grid of 1253 points,  8 beta functions with: 
                l(1) =   0
                l(2) =   0
                l(3) =   1
                l(4) =   1
                l(5) =   2
                l(6) =   2
                l(7) =   3
                l(8) =   3
     Q(r) pseudized with 0 coefficients 


     PseudoPot. # 2 for H  read from file:
     /work/home/mayuan/workplace/1.typical_hydride/003.MH10/1.LaH10/250/Tc-666-paw/pp/H.pbe-kjpaw_psl.1.0.0.UPF
     MD5 check sum: 3bb27c602ede137025941d095c9090b7
     Pseudo is Projector augmented-wave, Zval =  1.0
     Generated using 'atomic' code by A. Dal Corso  v.7.1
     Shape of augmentation charge: PSQ
     Using radial grid of  929 points,  2 beta functions with: 
                l(1) =   0
                l(2) =   0
     Q(r) pseudized with 0 coefficients 


     Mode symmetry, O_h (m-3m)  point group:


     Atomic displacements:
     There are   13 irreducible representations

     Representation     1      1 modes -  To be done

     Representation     2      2 modes -  To be done

     Representation     3      3 modes -  To be done

     Representation     4      3 modes -  To be done

     Representation     5      3 modes -  To be done

     Representation     6      3 modes -  To be done

     Representation     7      1 modes -  To be done

     Representation     8      2 modes -  To be done

     Representation     9      3 modes -  To be done

     Representation    10      3 modes -  To be done

     Representation    11      3 modes -  To be done

     Representation    12      3 modes -  To be done

     Representation    13      3 modes -  To be done



     Alpha used in Ewald sum =   2.8000
     PHONON       :      7.04s CPU     16.79s WALL



     Representation #   1 mode #   1

     Self-consistent Calculation
 
     Pert. #  1: Fermi energy shift (Ry) =     5.0057E-02    -1.0340E-24

      iter #   1 total cpu time :    21.2 secs   av.it.:   5.0
      thresh= 1.000E-02 alpha_mix =  0.300 |ddv_scf|^2 =  1.132E-07
 
     Pert. #  1: Fermi energy shift (Ry) =     4.9005E-02     1.5510E-25

      iter #   2 total cpu time :    26.4 secs   av.it.:  10.6
      thresh= 3.365E-05 alpha_mix =  0.300 |ddv_scf|^2 =  2.294E-08
 
     Pert. #  1: Fermi energy shift (Ry) =     5.0611E-02     1.1632E-25

      iter #   3 total cpu time :    33.8 secs   av.it.:  11.0
      thresh= 1.514E-05 alpha_mix =  0.300 |ddv_scf|^2 =  5.999E-10
 
     Pert. #  1: Fermi energy shift (Ry) =     5.1436E-02     9.0473E-26

      iter #   4 total cpu time :    38.8 secs   av.it.:  11.6
      thresh= 2.449E-06 alpha_mix =  0.300 |ddv_scf|^2 =  3.027E-11
 
     Pert. #  1: Fermi energy shift (Ry) =     5.0267E-02     9.0473E-26

      iter #   5 total cpu time :    44.3 secs   av.it.:  11.0
      thresh= 5.502E-07 alpha_mix =  0.300 |ddv_scf|^2 =  7.281E-13
 
     Pert. #  1: Fermi energy shift (Ry) =     5.0145E-02     9.0473E-26

      iter #   6 total cpu time :    49.3 secs   av.it.:  11.1
      thresh= 8.533E-08 alpha_mix =  0.300 |ddv_scf|^2 =  1.221E-13
 
     Pert. #  1: Fermi energy shift (Ry) =     5.0042E-02     9.0473E-26

      iter #   7 total cpu time :    56.2 secs   av.it.:  11.6
      thresh= 3.494E-08 alpha_mix =  0.300 |ddv_scf|^2 =  1.231E-15

     End of self-consistent calculation

     Convergence has been achieved 


     Representation #   2 modes #   2   3

     Self-consistent Calculation
 
     Pert. #  1: Fermi energy shift (Ry) =     2.8912E-19    -3.1568E-41
     Pert. #  2: Fermi energy shift (Ry) =    -9.0350E-18     6.6963E-42

      iter #   1 total cpu time :    69.1 secs   av.it.:   5.0
      thresh= 1.000E-02 alpha_mix =  0.300 |ddv_scf|^2 =  1.118E-08
 
     Pert. #  1: Fermi energy shift (Ry) =     3.6357E-17    -4.7831E-42
     Pert. #  2: Fermi energy shift (Ry) =    -3.4333E-18     3.6471E-42

      iter #   2 total cpu time :    77.9 secs   av.it.:  11.8
      thresh= 1.057E-05 alpha_mix =  0.300 |ddv_scf|^2 =  3.263E-09
 
     Pert. #  1: Fermi energy shift (Ry) =     1.2794E-17    -3.6352E-41
     Pert. #  2: Fermi energy shift (Ry) =     1.5432E-17    -1.7219E-41

      iter #   3 total cpu time :    85.9 secs   av.it.:  12.9
      thresh= 5.712E-06 alpha_mix =  0.300 |ddv_scf|^2 =  1.899E-11
 
     Pert. #  1: Fermi energy shift (Ry) =     7.2280E-18     5.5484E-41
     Pert. #  2: Fermi energy shift (Ry) =    -1.0300E-17     2.3915E-41

      iter #   4 total cpu time :    94.2 secs   av.it.:  13.3
      thresh= 4.357E-07 alpha_mix =  0.300 |ddv_scf|^2 =  7.809E-13
 
     Pert. #  1: Fermi energy shift (Ry) =     1.2360E-17     5.5484E-41
     Pert. #  2: Fermi energy shift (Ry) =     1.7420E-17     2.3915E-41

      iter #   5 total cpu time :   102.3 secs   av.it.:  12.8
      thresh= 8.837E-08 alpha_mix =  0.300 |ddv_scf|^2 =  1.028E-13
 
     Pert. #  1: Fermi energy shift (Ry) =     7.5171E-18     5.5484E-41
     Pert. #  2: Fermi energy shift (Ry) =    -4.9873E-18     2.3915E-41

      iter #   6 total cpu time :   110.9 secs   av.it.:  12.8
      thresh= 3.206E-08 alpha_mix =  0.300 |ddv_scf|^2 =  1.970E-16

     End of self-consistent calculation

     Convergence has been achieved 


     Representation #   3 modes #   4   5   6

     Self-consistent Calculation
 
     Pert. #  1: Fermi energy shift (Ry) =     3.1623E-19    -1.3316E-39
     Pert. #  2: Fermi energy shift (Ry) =    -3.3881E-19     4.8214E-40
     Pert. #  3: Fermi energy shift (Ry) =    -2.5298E-19     6.8111E-40

      iter #   1 total cpu time :   126.4 secs   av.it.:   3.5
      thresh= 1.000E-02 alpha_mix =  0.300 |ddv_scf|^2 =  5.731E-11
 
     Pert. #  1: Fermi energy shift (Ry) =     3.5237E-19    -5.2614E-42
     Pert. #  2: Fermi energy shift (Ry) =    -2.0329E-19    -9.0879E-42
     Pert. #  3: Fermi energy shift (Ry) =    -2.1684E-19    -1.1240E-41

      iter #   2 total cpu time :   136.5 secs   av.it.:  13.5
      thresh= 7.570E-07 alpha_mix =  0.300 |ddv_scf|^2 =  2.851E-11
 
     Pert. #  1: Fermi energy shift (Ry) =     1.8070E-19    -4.7831E-42
     Pert. #  2: Fermi energy shift (Ry) =    -2.1684E-19     1.0284E-41
     Pert. #  3: Fermi energy shift (Ry) =    -2.9364E-19    -3.3482E-42

      iter #   3 total cpu time :   146.9 secs   av.it.:  12.8
      thresh= 5.339E-07 alpha_mix =  0.300 |ddv_scf|^2 =  4.415E-14
 
     Pert. #  1: Fermi energy shift (Ry) =     4.2465E-19    -4.7831E-42
     Pert. #  2: Fermi energy shift (Ry) =    -2.5750E-19     1.0284E-41
     Pert. #  3: Fermi energy shift (Ry) =     3.1623E-20    -3.3482E-42

      iter #   4 total cpu time :   157.6 secs   av.it.:  12.3
      thresh= 2.101E-08 alpha_mix =  0.300 |ddv_scf|^2 =  1.869E-14
 
     Pert. #  1: Fermi energy shift (Ry) =     3.4333E-19    -4.7831E-42
     Pert. #  2: Fermi energy shift (Ry) =    -2.8460E-19     1.0284E-41
     Pert. #  3: Fermi energy shift (Ry) =    -4.5175E-21    -3.3482E-42

      iter #   5 total cpu time :   168.9 secs   av.it.:  13.2
      thresh= 1.367E-08 alpha_mix =  0.300 |ddv_scf|^2 =  3.385E-17

     End of self-consistent calculation

     Convergence has been achieved 


     Representation #   4 modes #   7   8   9

     Self-consistent Calculation
 
     Pert. #  1: Fermi energy shift (Ry) =     1.1587E-18     2.6785E-41
     Pert. #  2: Fermi energy shift (Ry) =     5.9631E-19    -9.5662E-42
     Pert. #  3: Fermi energy shift (Ry) =    -3.6140E-19    -7.6530E-42

      iter #   1 total cpu time :   184.6 secs   av.it.:   4.7
      thresh= 1.000E-02 alpha_mix =  0.300 |ddv_scf|^2 =  4.419E-09
 
     Pert. #  1: Fermi energy shift (Ry) =     4.3763E-20     7.1746E-43
     Pert. #  2: Fermi energy shift (Ry) =    -4.0813E-19     1.4349E-42
     Pert. #  3: Fermi energy shift (Ry) =    -2.9861E-19     1.3154E-42

      iter #   2 total cpu time :   195.5 secs   av.it.:  12.7
      thresh= 6.648E-06 alpha_mix =  0.300 |ddv_scf|^2 =  8.835E-10
 
     Pert. #  1: Fermi energy shift (Ry) =    -7.9056E-20     9.5662E-43
     Pert. #  2: Fermi energy shift (Ry) =    -8.5833E-20     4.7831E-43
     Pert. #  3: Fermi energy shift (Ry) =    -2.3717E-19     1.1958E-42

      iter #   3 total cpu time :   206.2 secs   av.it.:  13.5
      thresh= 2.972E-06 alpha_mix =  0.300 |ddv_scf|^2 =  9.770E-12
 
     Pert. #  1: Fermi energy shift (Ry) =     4.7999E-19     9.5662E-43
     Pert. #  2: Fermi energy shift (Ry) =     3.5688E-19     4.7831E-43
     Pert. #  3: Fermi energy shift (Ry) =    -2.5976E-19     1.1958E-42

      iter #   4 total cpu time :   217.7 secs   av.it.:  13.9
      thresh= 3.126E-07 alpha_mix =  0.300 |ddv_scf|^2 =  3.180E-13
 
     Pert. #  1: Fermi energy shift (Ry) =    -1.1520E-19     9.5662E-43
     Pert. #  2: Fermi energy shift (Ry) =    -2.2588E-19     4.7831E-43
     Pert. #  3: Fermi energy shift (Ry) =     5.0822E-20     1.1958E-42

      iter #   5 total cpu time :   229.4 secs   av.it.:  13.4
      thresh= 5.640E-08 alpha_mix =  0.300 |ddv_scf|^2 =  2.320E-14
 
     Pert. #  1: Fermi energy shift (Ry) =     1.0413E-18     9.5662E-43
     Pert. #  2: Fermi energy shift (Ry) =     4.6982E-19     4.7831E-43
     Pert. #  3: Fermi energy shift (Ry) =     1.1068E-19     1.1958E-42

      iter #   6 total cpu time :   240.0 secs   av.it.:  13.8
      thresh= 1.523E-08 alpha_mix =  0.300 |ddv_scf|^2 =  7.657E-17

     End of self-consistent calculation

     Convergence has been achieved 


     Representation #   5 modes #  10  11  12

     Self-consistent Calculation
 
     Pert. #  1: Fermi energy shift (Ry) =     8.6962E-19     1.9132E-41
     Pert. #  2: Fermi energy shift (Ry) =     1.5698E-18     2.1046E-41
     Pert. #  3: Fermi energy shift (Ry) =    -3.0761E-19    -3.0014E-41

      iter #   1 total cpu time :   256.8 secs   av.it.:   4.5
      thresh= 1.000E-02 alpha_mix =  0.300 |ddv_scf|^2 =  2.204E-09
 
     Pert. #  1: Fermi energy shift (Ry) =     1.6489E-19     2.8699E-42
     Pert. #  2: Fermi energy shift (Ry) =     7.0473E-19     5.7397E-42
     Pert. #  3: Fermi energy shift (Ry) =    -1.1523E-20    -1.8460E-42

      iter #   2 total cpu time :   268.1 secs   av.it.:  12.6
      thresh= 4.695E-06 alpha_mix =  0.300 |ddv_scf|^2 =  4.627E-10
 
     Pert. #  1: Fermi energy shift (Ry) =     5.8276E-19     2.8699E-42
     Pert. #  2: Fermi energy shift (Ry) =     9.0350E-21     5.7397E-42
     Pert. #  3: Fermi energy shift (Ry) =     4.9754E-20    -1.8460E-42

      iter #   3 total cpu time :   279.5 secs   av.it.:  13.4
      thresh= 2.151E-06 alpha_mix =  0.300 |ddv_scf|^2 =  9.227E-12
 
     Pert. #  1: Fermi energy shift (Ry) =     1.2875E-19     2.6307E-42
     Pert. #  2: Fermi energy shift (Ry) =     7.4087E-19     7.6530E-42
     Pert. #  3: Fermi energy shift (Ry) =    -3.8636E-19    -5.7920E-42

      iter #   4 total cpu time :   290.5 secs   av.it.:  13.6
      thresh= 3.038E-07 alpha_mix =  0.300 |ddv_scf|^2 =  4.625E-13
 
     Pert. #  1: Fermi energy shift (Ry) =     9.0350E-20     2.8699E-42
     Pert. #  2: Fermi energy shift (Ry) =     1.2649E-18     5.7397E-42
     Pert. #  3: Fermi energy shift (Ry) =    -4.6662E-20    -1.8460E-42

      iter #   5 total cpu time :   302.1 secs   av.it.:  13.5
      thresh= 6.800E-08 alpha_mix =  0.300 |ddv_scf|^2 =  2.266E-14
 
     Pert. #  1: Fermi energy shift (Ry) =     3.6818E-19     2.8699E-42
     Pert. #  2: Fermi energy shift (Ry) =     8.1315E-20     5.7397E-42
     Pert. #  3: Fermi energy shift (Ry) =     4.6526E-19    -1.8460E-42

      iter #   6 total cpu time :   312.6 secs   av.it.:  13.7
      thresh= 1.505E-08 alpha_mix =  0.300 |ddv_scf|^2 =  5.037E-16

     End of self-consistent calculation

     Convergence has been achieved 


     Representation #   6 modes #  13  14  15

     Self-consistent Calculation
 
     Pert. #  1: Fermi energy shift (Ry) =    -1.5179E-18     2.9655E-41
     Pert. #  2: Fermi energy shift (Ry) =     8.1315E-19     5.7397E-42
     Pert. #  3: Fermi energy shift (Ry) =    -3.7382E-19     1.9132E-41

      iter #   1 total cpu time :   328.4 secs   av.it.:   4.6
      thresh= 1.000E-02 alpha_mix =  0.300 |ddv_scf|^2 =  4.568E-09
 
     Pert. #  1: Fermi energy shift (Ry) =    -6.5052E-19     1.6741E-41
     Pert. #  2: Fermi energy shift (Ry) =     6.2342E-19    -7.8921E-42
     Pert. #  3: Fermi energy shift (Ry) =    -1.6291E-18     7.2344E-42

      iter #   2 total cpu time :   339.5 secs   av.it.:  12.6
      thresh= 6.759E-06 alpha_mix =  0.300 |ddv_scf|^2 =  9.084E-10
 
     Pert. #  1: Fermi energy shift (Ry) =    -6.5052E-19     1.6741E-41
     Pert. #  2: Fermi energy shift (Ry) =     1.8070E-20    -7.8921E-42
     Pert. #  3: Fermi energy shift (Ry) =    -7.0699E-19     7.2344E-42

      iter #   3 total cpu time :   350.4 secs   av.it.:  13.5
      thresh= 3.014E-06 alpha_mix =  0.300 |ddv_scf|^2 =  7.985E-12
 
     Pert. #  1: Fermi energy shift (Ry) =    -1.4456E-18     1.4828E-41
     Pert. #  2: Fermi energy shift (Ry) =     2.5298E-19    -1.1958E-42
     Pert. #  3: Fermi energy shift (Ry) =    -7.5217E-19     1.3452E-41

      iter #   4 total cpu time :   360.8 secs   av.it.:  13.8
      thresh= 2.826E-07 alpha_mix =  0.300 |ddv_scf|^2 =  3.297E-13
 
     Pert. #  1: Fermi energy shift (Ry) =    -7.5894E-19     1.4828E-41
     Pert. #  2: Fermi energy shift (Ry) =     2.7105E-19    -1.1958E-42
     Pert. #  3: Fermi energy shift (Ry) =    -7.1828E-19     1.3452E-41

      iter #   5 total cpu time :   371.5 secs   av.it.:  13.3
      thresh= 5.742E-08 alpha_mix =  0.300 |ddv_scf|^2 =  2.100E-14
 
     Pert. #  1: Fermi energy shift (Ry) =    -1.0842E-18     1.4828E-41
     Pert. #  2: Fermi energy shift (Ry) =    -6.0535E-19    -1.1958E-42
     Pert. #  3: Fermi energy shift (Ry) =    -7.6911E-19     1.3452E-41

      iter #   6 total cpu time :   382.7 secs   av.it.:  13.9
      thresh= 1.449E-08 alpha_mix =  0.300 |ddv_scf|^2 =  1.022E-16

     End of self-consistent calculation

     Convergence has been achieved 


     Representation #   7 mode #  16

     Self-consistent Calculation
 
     Pert. #  1: Fermi energy shift (Ry) =     1.0340E-25    -2.5077E-37

      iter #   1 total cpu time :   396.4 secs   av.it.:   4.5
      thresh= 1.000E-02 alpha_mix =  0.300 |ddv_scf|^2 =  6.678E-08
 
     Pert. #  1: Fermi energy shift (Ry) =    -1.0340E-25     5.8775E-39

      iter #   2 total cpu time :   402.0 secs   av.it.:  10.1
      thresh= 2.584E-05 alpha_mix =  0.300 |ddv_scf|^2 =  1.105E-08
 
     Pert. #  1: Fermi energy shift (Ry) =    -6.8932E-26     7.3468E-40

      iter #   3 total cpu time :   407.4 secs   av.it.:  11.0
      thresh= 1.051E-05 alpha_mix =  0.300 |ddv_scf|^2 =  7.204E-11
 
     Pert. #  1: Fermi energy shift (Ry) =    -3.1019E-25    -3.0612E-40

      iter #   4 total cpu time :   412.5 secs   av.it.:   9.6
      thresh= 8.487E-07 alpha_mix =  0.300 |ddv_scf|^2 =  1.405E-12
 
     Pert. #  1: Fermi energy shift (Ry) =    -6.8932E-26     9.1835E-41

      iter #   5 total cpu time :   417.5 secs   av.it.:  10.4
      thresh= 1.185E-07 alpha_mix =  0.300 |ddv_scf|^2 =  2.628E-14
 
     Pert. #  1: Fermi energy shift (Ry) =    -1.7233E-25     3.8265E-41

      iter #   6 total cpu time :   422.1 secs   av.it.:  10.9
      thresh= 1.621E-08 alpha_mix =  0.300 |ddv_scf|^2 =  3.354E-16

     End of self-consistent calculation

     Convergence has been achieved 


     Representation #   8 modes #  17  18

     Self-consistent Calculation
 
     Pert. #  1: Fermi energy shift (Ry) =    -2.4988E-25     7.0530E-38
     Pert. #  2: Fermi energy shift (Ry) =     1.7233E-25     2.1316E-36

      iter #   1 total cpu time :   433.4 secs   av.it.:   3.3
      thresh= 1.000E-02 alpha_mix =  0.300 |ddv_scf|^2 =  1.234E-10
 
     Pert. #  1: Fermi energy shift (Ry) =    -4.3082E-27     5.7971E-40
     Pert. #  2: Fermi energy shift (Ry) =     5.1699E-26    -2.1428E-40

      iter #   2 total cpu time :   441.2 secs   av.it.:  12.7
      thresh= 1.111E-06 alpha_mix =  0.300 |ddv_scf|^2 =  6.180E-11
 
     Pert. #  1: Fermi energy shift (Ry) =    -1.4109E-25     2.3724E-40
     Pert. #  2: Fermi energy shift (Ry) =     3.4466E-26    -1.5306E-40

      iter #   3 total cpu time :   449.3 secs   av.it.:  11.4
      thresh= 7.861E-07 alpha_mix =  0.300 |ddv_scf|^2 =  5.017E-14
 
     Pert. #  1: Fermi energy shift (Ry) =     3.0158E-26    -3.8265E-41
     Pert. #  2: Fermi energy shift (Ry) =     1.3786E-25     3.0612E-41

      iter #   4 total cpu time :   457.4 secs   av.it.:  10.9
      thresh= 2.240E-08 alpha_mix =  0.300 |ddv_scf|^2 =  1.526E-14
 
     Pert. #  1: Fermi energy shift (Ry) =    -1.3248E-25    -7.6530E-42
     Pert. #  2: Fermi energy shift (Ry) =    -5.1699E-26     6.1224E-41

      iter #   5 total cpu time :   465.0 secs   av.it.:  11.3
      thresh= 1.235E-08 alpha_mix =  0.300 |ddv_scf|^2 =  1.804E-17

     End of self-consistent calculation

     Convergence has been achieved 


     Representation #   9 modes #  19  20  21

     Self-consistent Calculation
 
     Pert. #  1: Fermi energy shift (Ry) =    -1.0340E-25     1.0188E-36
     Pert. #  2: Fermi energy shift (Ry) =    -3.4466E-26     6.2693E-38
     Pert. #  3: Fermi energy shift (Ry) =     5.1699E-26     5.3289E-37

      iter #   1 total cpu time :   480.5 secs   av.it.:   4.2
      thresh= 1.000E-02 alpha_mix =  0.300 |ddv_scf|^2 =  1.518E-09
 
     Pert. #  1: Fermi energy shift (Ry) =     7.7548E-25    -9.7958E-40
     Pert. #  2: Fermi energy shift (Ry) =     0.0000E+00    -3.6734E-40
     Pert. #  3: Fermi energy shift (Ry) =     1.2063E-25    -2.1428E-40

      iter #   2 total cpu time :   491.5 secs   av.it.:  12.7
      thresh= 3.896E-06 alpha_mix =  0.300 |ddv_scf|^2 =  4.049E-10
 
     Pert. #  1: Fermi energy shift (Ry) =    -1.5510E-25     1.5689E-40
     Pert. #  2: Fermi energy shift (Ry) =    -6.2039E-25    -3.9030E-40
     Pert. #  3: Fermi energy shift (Ry) =    -3.1019E-25     4.0561E-40

      iter #   3 total cpu time :   503.2 secs   av.it.:  13.5
      thresh= 2.012E-06 alpha_mix =  0.300 |ddv_scf|^2 =  1.193E-11
 
     Pert. #  1: Fermi energy shift (Ry) =    -2.2403E-25    -8.0356E-41
     Pert. #  2: Fermi energy shift (Ry) =     2.0680E-25    -3.8265E-41
     Pert. #  3: Fermi energy shift (Ry) =    -1.7233E-25     3.2525E-41

      iter #   4 total cpu time :   514.3 secs   av.it.:  13.6
      thresh= 3.454E-07 alpha_mix =  0.300 |ddv_scf|^2 =  4.630E-13
 
     Pert. #  1: Fermi energy shift (Ry) =    -1.8956E-25     1.1479E-41
     Pert. #  2: Fermi energy shift (Ry) =    -5.5145E-25     9.1835E-41
     Pert. #  3: Fermi energy shift (Ry) =     3.9636E-25     6.8877E-41

      iter #   5 total cpu time :   525.9 secs   av.it.:  13.2
      thresh= 6.804E-08 alpha_mix =  0.300 |ddv_scf|^2 =  5.868E-14
 
     Pert. #  1: Fermi energy shift (Ry) =     3.1019E-25     1.9132E-41
     Pert. #  2: Fermi energy shift (Ry) =    -6.8932E-25    -7.6530E-42
     Pert. #  3: Fermi energy shift (Ry) =     1.7233E-26    -6.1224E-41

      iter #   6 total cpu time :   538.1 secs   av.it.:  13.7
      thresh= 2.422E-08 alpha_mix =  0.300 |ddv_scf|^2 =  5.829E-15

     End of self-consistent calculation

     Convergence has been achieved 


     Representation #  10 modes #  22  23  24

     Self-consistent Calculation
 
     Pert. #  1: Fermi energy shift (Ry) =     6.8932E-26    -2.7585E-36
     Pert. #  2: Fermi energy shift (Ry) =    -1.4648E-25     2.7585E-36
     Pert. #  3: Fermi energy shift (Ry) =     1.8095E-25    -3.5422E-36

      iter #   1 total cpu time :   552.9 secs   av.it.:   4.0
      thresh= 1.000E-02 alpha_mix =  0.300 |ddv_scf|^2 =  4.771E-10
 
     Pert. #  1: Fermi energy shift (Ry) =     4.1359E-25     1.8367E-40
     Pert. #  2: Fermi energy shift (Ry) =    -3.4466E-26    -8.8774E-40
     Pert. #  3: Fermi energy shift (Ry) =     6.0315E-26     8.1121E-40

      iter #   2 total cpu time :   563.4 secs   av.it.:  13.0
      thresh= 2.184E-06 alpha_mix =  0.300 |ddv_scf|^2 =  1.454E-10
 
     Pert. #  1: Fermi energy shift (Ry) =    -6.2039E-25    -2.2194E-40
     Pert. #  2: Fermi energy shift (Ry) =     4.8252E-25     3.0994E-40
     Pert. #  3: Fermi energy shift (Ry) =    -1.3786E-25     4.2091E-41

      iter #   3 total cpu time :   574.1 secs   av.it.:  13.2
      thresh= 1.206E-06 alpha_mix =  0.300 |ddv_scf|^2 =  1.318E-11
 
     Pert. #  1: Fermi energy shift (Ry) =    -4.1359E-25     1.9898E-40
     Pert. #  2: Fermi energy shift (Ry) =     5.5145E-25    -3.5969E-40
     Pert. #  3: Fermi energy shift (Ry) =    -5.1699E-26     1.0025E-39

      iter #   4 total cpu time :   585.9 secs   av.it.:  13.5
      thresh= 3.631E-07 alpha_mix =  0.300 |ddv_scf|^2 =  2.045E-13
 
     Pert. #  1: Fermi energy shift (Ry) =    -3.4466E-26    -2.1428E-40
     Pert. #  2: Fermi energy shift (Ry) =     2.9296E-25    -5.2805E-40
     Pert. #  3: Fermi energy shift (Ry) =    -1.7233E-25     2.2194E-40

      iter #   5 total cpu time :   597.1 secs   av.it.:  13.0
      thresh= 4.523E-08 alpha_mix =  0.300 |ddv_scf|^2 =  4.322E-14
 
     Pert. #  1: Fermi energy shift (Ry) =     3.4466E-26     7.0407E-40
     Pert. #  2: Fermi energy shift (Ry) =     3.0158E-25    -5.5867E-40
     Pert. #  3: Fermi energy shift (Ry) =    -2.0680E-25     2.2959E-40

      iter #   6 total cpu time :   608.3 secs   av.it.:  13.6
      thresh= 2.079E-08 alpha_mix =  0.300 |ddv_scf|^2 =  2.012E-15

     End of self-consistent calculation

     Convergence has been achieved 


     Representation #  11 modes #  25  26  27

     Self-consistent Calculation
 
     Pert. #  1: Fermi energy shift (Ry) =    -1.7578E-24     2.5077E-36
     Pert. #  2: Fermi energy shift (Ry) =     6.8932E-25     2.5077E-36
     Pert. #  3: Fermi energy shift (Ry) =    -2.4126E-25     2.5077E-37

      iter #   1 total cpu time :   626.2 secs   av.it.:   6.9
      thresh= 1.000E-02 alpha_mix =  0.300 |ddv_scf|^2 =  9.185E-08
 
     Pert. #  1: Fermi energy shift (Ry) =     1.0684E-24    -3.2755E-39
     Pert. #  2: Fermi energy shift (Ry) =     2.7573E-25    -1.4694E-39
     Pert. #  3: Fermi energy shift (Ry) =    -3.4466E-25    -1.9592E-39

      iter #   2 total cpu time :   636.5 secs   av.it.:  12.7
      thresh= 3.031E-05 alpha_mix =  0.300 |ddv_scf|^2 =  2.083E-08
 
     Pert. #  1: Fermi energy shift (Ry) =    -5.2776E-25    -3.5510E-39
     Pert. #  2: Fermi energy shift (Ry) =    -3.6189E-25    -9.7958E-39
     Pert. #  3: Fermi energy shift (Ry) =     1.5510E-25     2.9387E-39

      iter #   3 total cpu time :   647.2 secs   av.it.:  13.4
      thresh= 1.443E-05 alpha_mix =  0.300 |ddv_scf|^2 =  1.902E-09
 
     Pert. #  1: Fermi energy shift (Ry) =     1.6910E-25    -5.2040E-39
     Pert. #  2: Fermi energy shift (Ry) =    -6.0315E-26     9.7958E-40
     Pert. #  3: Fermi energy shift (Ry) =     2.8650E-25    -1.2245E-39

      iter #   4 total cpu time :   657.6 secs   av.it.:  13.7
      thresh= 4.362E-06 alpha_mix =  0.300 |ddv_scf|^2 =  2.923E-11
 
     Pert. #  1: Fermi energy shift (Ry) =     5.0622E-26     3.0306E-39
     Pert. #  2: Fermi energy shift (Ry) =     2.5849E-26     2.4489E-39
     Pert. #  3: Fermi energy shift (Ry) =     6.5916E-25    -1.2245E-39

      iter #   5 total cpu time :   669.1 secs   av.it.:  13.0
      thresh= 5.407E-07 alpha_mix =  0.300 |ddv_scf|^2 =  2.462E-12
 
     Pert. #  1: Fermi energy shift (Ry) =     1.5079E-26     3.0306E-39
     Pert. #  2: Fermi energy shift (Ry) =     6.2039E-25     2.4489E-39
     Pert. #  3: Fermi energy shift (Ry) =    -7.5394E-25    -1.2245E-39

      iter #   6 total cpu time :   680.6 secs   av.it.:  12.9
      thresh= 1.569E-07 alpha_mix =  0.300 |ddv_scf|^2 =  4.652E-13
 
     Pert. #  1: Fermi energy shift (Ry) =    -1.3786E-25     8.2652E-40
     Pert. #  2: Fermi energy shift (Ry) =     8.0995E-25    -1.9592E-39
     Pert. #  3: Fermi energy shift (Ry) =    -6.6131E-25    -6.1224E-41

      iter #   7 total cpu time :   691.3 secs   av.it.:  13.5
      thresh= 6.821E-08 alpha_mix =  0.300 |ddv_scf|^2 =  3.521E-15

     End of self-consistent calculation

     Convergence has been achieved 


     Representation #  12 modes #  28  29  30

     Self-consistent Calculation
 
     Pert. #  1: Fermi energy shift (Ry) =    -9.0473E-26    -2.7898E-36
     Pert. #  2: Fermi energy shift (Ry) =    -2.0680E-25     0.0000E+00
     Pert. #  3: Fermi energy shift (Ry) =     3.8774E-25     8.7770E-37

      iter #   1 total cpu time :   706.2 secs   av.it.:   5.0
      thresh= 1.000E-02 alpha_mix =  0.300 |ddv_scf|^2 =  8.145E-09
 
     Pert. #  1: Fermi energy shift (Ry) =    -2.4988E-25    -8.6938E-39
     Pert. #  2: Fermi energy shift (Ry) =     1.7233E-26     9.7958E-40
     Pert. #  3: Fermi energy shift (Ry) =     5.1699E-26     9.3060E-39

      iter #   2 total cpu time :   716.0 secs   av.it.:  12.6
      thresh= 9.025E-06 alpha_mix =  0.300 |ddv_scf|^2 =  1.344E-09
 
     Pert. #  1: Fermi energy shift (Ry) =    -8.4011E-26    -2.1275E-39
     Pert. #  2: Fermi energy shift (Ry) =    -5.1699E-26    -2.5714E-39
     Pert. #  3: Fermi energy shift (Ry) =     7.7548E-26     1.9592E-39

      iter #   3 total cpu time :   726.9 secs   av.it.:  13.3
      thresh= 3.667E-06 alpha_mix =  0.300 |ddv_scf|^2 =  2.116E-11
 
     Pert. #  1: Fermi energy shift (Ry) =     2.4772E-26    -2.6211E-40
     Pert. #  2: Fermi energy shift (Ry) =    -7.7548E-26    -1.8367E-40
     Pert. #  3: Fermi energy shift (Ry) =     3.4466E-26     2.4489E-40

      iter #   4 total cpu time :   738.1 secs   av.it.:  13.7
      thresh= 4.600E-07 alpha_mix =  0.300 |ddv_scf|^2 =  2.609E-13
 
     Pert. #  1: Fermi energy shift (Ry) =    -3.4466E-26    -5.8354E-41
     Pert. #  2: Fermi energy shift (Ry) =    -2.5849E-26    -7.6530E-42
     Pert. #  3: Fermi energy shift (Ry) =     7.7548E-26     5.3571E-41

      iter #   5 total cpu time :   748.5 secs   av.it.:  12.6
      thresh= 5.108E-08 alpha_mix =  0.300 |ddv_scf|^2 =  7.945E-14
 
     Pert. #  1: Fermi energy shift (Ry) =    -8.2933E-26     6.4094E-41
     Pert. #  2: Fermi energy shift (Ry) =     2.5849E-26    -3.2142E-40
     Pert. #  3: Fermi energy shift (Ry) =     0.0000E+00    -7.6530E-41

      iter #   6 total cpu time :   759.8 secs   av.it.:  13.4
      thresh= 2.819E-08 alpha_mix =  0.300 |ddv_scf|^2 =  7.187E-16

     End of self-consistent calculation

     Convergence has been achieved 


     Representation #  13 modes #  31  32  33

     Self-consistent Calculation
 
     Pert. #  1: Fermi energy shift (Ry) =    -4.1359E-25     2.5077E-36
     Pert. #  2: Fermi energy shift (Ry) =    -1.3097E-24    -1.0532E-35
     Pert. #  3: Fermi energy shift (Ry) =     1.3786E-24    -1.3792E-36

      iter #   1 total cpu time :   774.6 secs   av.it.:   4.3
      thresh= 1.000E-02 alpha_mix =  0.300 |ddv_scf|^2 =  3.078E-10
 
     Pert. #  1: Fermi energy shift (Ry) =    -9.6504E-25     9.1835E-41
     Pert. #  2: Fermi energy shift (Ry) =     1.7233E-25    -2.4107E-40
     Pert. #  3: Fermi energy shift (Ry) =    -4.1359E-25    -3.2142E-40

      iter #   2 total cpu time :   784.5 secs   av.it.:  13.0
      thresh= 1.754E-06 alpha_mix =  0.300 |ddv_scf|^2 =  1.371E-10
 
     Pert. #  1: Fermi energy shift (Ry) =     4.8252E-25     0.0000E+00
     Pert. #  2: Fermi energy shift (Ry) =     5.1699E-26     1.3775E-40
     Pert. #  3: Fermi energy shift (Ry) =    -5.1699E-25     4.8979E-40

      iter #   3 total cpu time :   795.0 secs   av.it.:  13.5
      thresh= 1.171E-06 alpha_mix =  0.300 |ddv_scf|^2 =  6.378E-13
 
     Pert. #  1: Fermi energy shift (Ry) =    -9.6504E-25    -3.0612E-41
     Pert. #  2: Fermi energy shift (Ry) =     3.4466E-26    -4.5152E-40
     Pert. #  3: Fermi energy shift (Ry) =    -4.8252E-25    -4.2857E-40

      iter #   4 total cpu time :   805.2 secs   av.it.:  13.4
      thresh= 7.986E-08 alpha_mix =  0.300 |ddv_scf|^2 =  2.299E-14
 
     Pert. #  1: Fermi energy shift (Ry) =    -4.1359E-25    -3.0612E-41
     Pert. #  2: Fermi energy shift (Ry) =    -2.4126E-25    -4.5152E-40
     Pert. #  3: Fermi energy shift (Ry) =    -7.5825E-25    -4.2857E-40

      iter #   5 total cpu time :   815.4 secs   av.it.:  13.1
      thresh= 1.516E-08 alpha_mix =  0.300 |ddv_scf|^2 =  1.371E-15

     End of self-consistent calculation

     Convergence has been achieved 
 
     Number of q in the star =    1
     List of q in the star:
          1   0.000000000   0.000000000   0.000000000

     Diagonalizing the dynamical matrix

     q = (    0.000000000   0.000000000   0.000000000 ) 

 **************************************************************************
     freq (    1) =       0.466428 [THz] =      15.558380 [cm-1]
     freq (    2) =       0.466428 [THz] =      15.558380 [cm-1]
     freq (    3) =       0.466428 [THz] =      15.558380 [cm-1]
     freq (    4) =      26.483592 [THz] =     883.397534 [cm-1]
     freq (    5) =      26.483592 [THz] =     883.397534 [cm-1]
     freq (    6) =      26.483592 [THz] =     883.397534 [cm-1]
     freq (    7) =      30.785476 [THz] =    1026.892940 [cm-1]
     freq (    8) =      30.785476 [THz] =    1026.892940 [cm-1]
     freq (    9) =      30.785476 [THz] =    1026.892940 [cm-1]
     freq (   10) =      33.551873 [THz] =    1119.170002 [cm-1]
     freq (   11) =      33.551873 [THz] =    1119.170002 [cm-1]
     freq (   12) =      33.551873 [THz] =    1119.170002 [cm-1]
     freq (   13) =      37.218441 [THz] =    1241.473565 [cm-1]
     freq (   14) =      37.218441 [THz] =    1241.473565 [cm-1]
     freq (   15) =      37.218441 [THz] =    1241.473565 [cm-1]
     freq (   16) =      37.727051 [THz] =    1258.438951 [cm-1]
     freq (   17) =      37.727051 [THz] =    1258.438951 [cm-1]
     freq (   18) =      37.727051 [THz] =    1258.438951 [cm-1]
     freq (   19) =      41.750159 [THz] =    1392.635414 [cm-1]
     freq (   20) =      41.750159 [THz] =    1392.635414 [cm-1]
     freq (   21) =      41.750159 [THz] =    1392.635414 [cm-1]
     freq (   22) =      43.251579 [THz] =    1442.717377 [cm-1]
     freq (   23) =      43.251579 [THz] =    1442.717377 [cm-1]
     freq (   24) =      47.461253 [THz] =    1583.136989 [cm-1]
     freq (   25) =      47.461253 [THz] =    1583.136989 [cm-1]
     freq (   26) =      52.438147 [THz] =    1749.148290 [cm-1]
     freq (   27) =      52.438147 [THz] =    1749.148290 [cm-1]
     freq (   28) =      52.438147 [THz] =    1749.148290 [cm-1]
     freq (   29) =      53.584908 [THz] =    1787.400138 [cm-1]
     freq (   30) =      53.584908 [THz] =    1787.400138 [cm-1]
     freq (   31) =      53.584908 [THz] =    1787.400138 [cm-1]
     freq (   32) =      56.376003 [THz] =    1880.501045 [cm-1]
     freq (   33) =      68.423913 [THz] =    2282.376065 [cm-1]
 **************************************************************************

     Mode symmetry, O_h (m-3m)  point group:

     freq (   1-   3) =         15.6  [cm-1]   --> T_1u G_15  G_4- I  
     freq (   4-   6) =        883.4  [cm-1]   --> T_2g G_25' G_5+ R  
     freq (   7-   9) =       1026.9  [cm-1]   --> T_1u G_15  G_4- I  
     freq (  10-  12) =       1119.2  [cm-1]   --> T_2g G_25' G_5+ R  
     freq (  13-  15) =       1241.5  [cm-1]   --> T_1u G_15  G_4- I  
     freq (  16-  18) =       1258.4  [cm-1]   --> T_2u G_25  G_5-    
     freq (  19-  21) =       1392.6  [cm-1]   --> T_1g G_15' G_4+    
     freq (  22-  23) =       1442.7  [cm-1]   --> E_u  G_12' G_3-    
     freq (  24-  25) =       1583.1  [cm-1]   --> E_g  G_12  G_3+ R  
     freq (  26-  28) =       1749.1  [cm-1]   --> T_2g G_25' G_5+ R  
     freq (  29-  31) =       1787.4  [cm-1]   --> T_1u G_15  G_4- I  
     freq (  32-  32) =       1880.5  [cm-1]   --> A_2u G_2'  G_2-    
     freq (  33-  33) =       2282.4  [cm-1]   --> A_1g G_1   G_1+ R  
     Electron-phonon interaction  ...

     Gaussian Broadening:   0.005 Ry, ngauss=   0
     DOS =  5.706849 states/spin/Ry/Unit Cell at Ef= 20.445499 eV
     lambda(    1)=  0.0000   gamma=    0.00 GHz
     lambda(    2)=  0.0000   gamma=    0.00 GHz
     lambda(    3)=  0.0000   gamma=    0.00 GHz
     lambda(    4)=  1.2776   gamma= 4883.31 GHz
     lambda(    5)=  1.2597   gamma= 4814.78 GHz
     lambda(    6)=  1.2444   gamma= 4756.56 GHz
     lambda(    7)=  0.0000   gamma=    0.00 GHz
     lambda(    8)=  0.0000   gamma=    0.00 GHz
     lambda(    9)=  0.0000   gamma=    0.00 GHz
     lambda(   10)=  1.5770   gamma= 9674.86 GHz
     lambda(   11)=  1.5736   gamma= 9653.76 GHz
     lambda(   12)=  1.6353   gamma=10032.60 GHz
     lambda(   13)=  0.0000   gamma=    0.00 GHz
     lambda(   14)=  0.0000   gamma=    0.00 GHz
     lambda(   15)=  0.0000   gamma=    0.00 GHz
     lambda(   16)=  0.0000   gamma=    0.00 GHz
     lambda(   17)=  0.0000   gamma=    0.00 GHz
     lambda(   18)=  0.0000   gamma=    0.00 GHz
     lambda(   19)=  0.0422   gamma=  400.51 GHz
     lambda(   20)=  0.0422   gamma=  400.52 GHz
     lambda(   21)=  0.0421   gamma=  400.22 GHz
     lambda(   22)=  0.0000   gamma=    0.03 GHz
     lambda(   23)=  0.0000   gamma=    0.03 GHz
     lambda(   24)=  2.7641   gamma=33931.27 GHz
     lambda(   25)=  2.7961   gamma=34324.18 GHz
     lambda(   26)=  0.3168   gamma= 4747.52 GHz
     lambda(   27)=  0.3260   gamma= 4884.68 GHz
     lambda(   28)=  0.3167   gamma= 4746.08 GHz
     lambda(   29)=  0.0000   gamma=    0.00 GHz
     lambda(   30)=  0.0000   gamma=    0.00 GHz
     lambda(   31)=  0.0000   gamma=    0.00 GHz
     lambda(   32)=  0.0000   gamma=    0.00 GHz
     lambda(   33)=  1.1986   gamma=30581.43 GHz
     Gaussian Broadening:   0.010 Ry, ngauss=   0
     DOS =  5.493178 states/spin/Ry/Unit Cell at Ef= 20.444376 eV
     lambda(    1)=  0.0000   gamma=    0.00 GHz
     lambda(    2)=  0.0000   gamma=    0.00 GHz
     lambda(    3)=  0.0000   gamma=    0.00 GHz
     lambda(    4)=  0.6781   gamma= 2494.71 GHz
     lambda(    5)=  0.6695   gamma= 2463.33 GHz
     lambda(    6)=  0.6593   gamma= 2425.79 GHz
     lambda(    7)=  0.0003   gamma=    1.54 GHz
     lambda(    8)=  0.0003   gamma=    1.54 GHz
     lambda(    9)=  0.0003   gamma=    1.54 GHz
     lambda(   10)=  0.7376   gamma= 4355.78 GHz
     lambda(   11)=  0.7345   gamma= 4337.48 GHz
     lambda(   12)=  0.7642   gamma= 4512.61 GHz
     lambda(   13)=  0.0001   gamma=    0.59 GHz
     lambda(   14)=  0.0001   gamma=    0.58 GHz
     lambda(   15)=  0.0001   gamma=    0.57 GHz
     lambda(   16)=  0.0014   gamma=   10.35 GHz
     lambda(   17)=  0.0014   gamma=   10.35 GHz
     lambda(   18)=  0.0014   gamma=   10.28 GHz
     lambda(   19)=  0.0213   gamma=  195.10 GHz
     lambda(   20)=  0.0213   gamma=  195.05 GHz
     lambda(   21)=  0.0212   gamma=  194.26 GHz
     lambda(   22)=  0.0001   gamma=    0.83 GHz
     lambda(   23)=  0.0001   gamma=    0.83 GHz
     lambda(   24)=  1.4032   gamma=16580.09 GHz
     lambda(   25)=  1.4185   gamma=16760.75 GHz
     lambda(   26)=  0.1608   gamma= 2319.23 GHz
     lambda(   27)=  0.1633   gamma= 2355.75 GHz
     lambda(   28)=  0.1604   gamma= 2313.00 GHz
     lambda(   29)=  0.0002   gamma=    2.56 GHz
     lambda(   30)=  0.0002   gamma=    2.57 GHz
     lambda(   31)=  0.0002   gamma=    2.55 GHz
     lambda(   32)=  0.0000   gamma=    0.06 GHz
     lambda(   33)=  0.4489   gamma=11024.47 GHz
     Gaussian Broadening:   0.015 Ry, ngauss=   0
     DOS =  5.643591 states/spin/Ry/Unit Cell at Ef= 20.442941 eV
     lambda(    1)=  0.0000   gamma=    0.00 GHz
     lambda(    2)=  0.0000   gamma=    0.00 GHz
     lambda(    3)=  0.0000   gamma=    0.00 GHz
     lambda(    4)=  0.4631   gamma= 1750.51 GHz
     lambda(    5)=  0.4581   gamma= 1731.59 GHz
     lambda(    6)=  0.4507   gamma= 1703.67 GHz
     lambda(    7)=  0.0018   gamma=    9.06 GHz
     lambda(    8)=  0.0018   gamma=    9.06 GHz
     lambda(    9)=  0.0018   gamma=    9.06 GHz
     lambda(   10)=  0.4747   gamma= 2879.82 GHz
     lambda(   11)=  0.4731   gamma= 2870.02 GHz
     lambda(   12)=  0.4903   gamma= 2974.76 GHz
     lambda(   13)=  0.0006   gamma=    4.20 GHz
     lambda(   14)=  0.0006   gamma=    4.14 GHz
     lambda(   15)=  0.0005   gamma=    4.06 GHz
     lambda(   16)=  0.0084   gamma=   64.34 GHz
     lambda(   17)=  0.0084   gamma=   64.42 GHz
     lambda(   18)=  0.0083   gamma=   63.50 GHz
     lambda(   19)=  0.0151   gamma=  141.79 GHz
     lambda(   20)=  0.0151   gamma=  141.80 GHz
     lambda(   21)=  0.0151   gamma=  141.61 GHz
     lambda(   22)=  0.0004   gamma=    4.18 GHz
     lambda(   23)=  0.0004   gamma=    4.18 GHz
     lambda(   24)=  0.9176   gamma=11138.82 GHz
     lambda(   25)=  0.9265   gamma=11246.98 GHz
     lambda(   26)=  0.1147   gamma= 1699.43 GHz
     lambda(   27)=  0.1158   gamma= 1715.35 GHz
     lambda(   28)=  0.1143   gamma= 1694.55 GHz
     lambda(   29)=  0.0010   gamma=   15.56 GHz
     lambda(   30)=  0.0010   gamma=   15.59 GHz
     lambda(   31)=  0.0010   gamma=   15.53 GHz
     lambda(   32)=  0.0000   gamma=    0.24 GHz
     lambda(   33)=  0.2421   gamma= 6108.86 GHz
     Gaussian Broadening:   0.020 Ry, ngauss=   0
     DOS =  5.693100 states/spin/Ry/Unit Cell at Ef= 20.442131 eV
     lambda(    1)=  0.0000   gamma=    0.01 GHz
     lambda(    2)=  0.0000   gamma=    0.01 GHz
     lambda(    3)=  0.0000   gamma=    0.01 GHz
     lambda(    4)=  0.3623   gamma= 1381.31 GHz
     lambda(    5)=  0.3590   gamma= 1368.79 GHz
     lambda(    6)=  0.3533   gamma= 1347.12 GHz
     lambda(    7)=  0.0031   gamma=   15.74 GHz
     lambda(    8)=  0.0031   gamma=   15.77 GHz
     lambda(    9)=  0.0031   gamma=   15.76 GHz
     lambda(   10)=  0.3573   gamma= 2186.63 GHz
     lambda(   11)=  0.3563   gamma= 2180.69 GHz
     lambda(   12)=  0.3675   gamma= 2249.33 GHz
     lambda(   13)=  0.0014   gamma=   10.90 GHz
     lambda(   14)=  0.0015   gamma=   10.93 GHz
     lambda(   15)=  0.0015   gamma=   10.99 GHz
     lambda(   16)=  0.0146   gamma=  113.11 GHz
     lambda(   17)=  0.0146   gamma=  113.31 GHz
     lambda(   18)=  0.0144   gamma=  111.10 GHz
     lambda(   19)=  0.0121   gamma=  114.75 GHz
     lambda(   20)=  0.0121   gamma=  114.79 GHz
     lambda(   21)=  0.0121   gamma=  114.87 GHz
     lambda(   22)=  0.0008   gamma=    8.10 GHz
     lambda(   23)=  0.0008   gamma=    8.10 GHz
     lambda(   24)=  0.7018   gamma= 8594.21 GHz
     lambda(   25)=  0.7074   gamma= 8662.63 GHz
     lambda(   26)=  0.0922   gamma= 1378.00 GHz
     lambda(   27)=  0.0927   gamma= 1386.27 GHz
     lambda(   28)=  0.0919   gamma= 1374.17 GHz
     lambda(   29)=  0.0017   gamma=   27.03 GHz
     lambda(   30)=  0.0017   gamma=   26.95 GHz
     lambda(   31)=  0.0017   gamma=   27.11 GHz
     lambda(   32)=  0.0000   gamma=    0.46 GHz
     lambda(   33)=  0.1638   gamma= 4169.78 GHz
     Gaussian Broadening:   0.025 Ry, ngauss=   0
     DOS =  5.666404 states/spin/Ry/Unit Cell at Ef= 20.442478 eV
     lambda(    1)=  0.0000   gamma=    0.02 GHz
     lambda(    2)=  0.0000   gamma=    0.02 GHz
     lambda(    3)=  0.0000   gamma=    0.02 GHz
     lambda(    4)=  0.3025   gamma= 1148.14 GHz
     lambda(    5)=  0.3002   gamma= 1139.25 GHz
     lambda(    6)=  0.2950   gamma= 1119.74 GHz
     lambda(    7)=  0.0038   gamma=   19.66 GHz
     lambda(    8)=  0.0038   gamma=   19.71 GHz
     lambda(    9)=  0.0038   gamma=   19.70 GHz
     lambda(   10)=  0.2897   gamma= 1764.48 GHz
     lambda(   11)=  0.2889   gamma= 1759.75 GHz
     lambda(   12)=  0.2968   gamma= 1807.93 GHz
     lambda(   13)=  0.0024   gamma=   17.63 GHz
     lambda(   14)=  0.0024   gamma=   17.78 GHz
     lambda(   15)=  0.0024   gamma=   18.03 GHz
     lambda(   16)=  0.0183   gamma=  141.25 GHz
     lambda(   17)=  0.0184   gamma=  141.53 GHz
     lambda(   18)=  0.0180   gamma=  138.48 GHz
     lambda(   19)=  0.0102   gamma=   96.08 GHz
     lambda(   20)=  0.0102   gamma=   96.13 GHz
     lambda(   21)=  0.0102   gamma=   96.33 GHz
     lambda(   22)=  0.0011   gamma=   11.11 GHz
     lambda(   23)=  0.0011   gamma=   11.11 GHz
     lambda(   24)=  0.5763   gamma= 7024.77 GHz
     lambda(   25)=  0.5800   gamma= 7069.99 GHz
     lambda(   26)=  0.0779   gamma= 1159.49 GHz
     lambda(   27)=  0.0783   gamma= 1164.46 GHz
     lambda(   28)=  0.0777   gamma= 1156.37 GHz
     lambda(   29)=  0.0022   gamma=   33.41 GHz
     lambda(   30)=  0.0021   gamma=   33.21 GHz
     lambda(   31)=  0.0022   gamma=   33.61 GHz
     lambda(   32)=  0.0000   gamma=    0.78 GHz
     lambda(   33)=  0.1267   gamma= 3208.82 GHz
     Gaussian Broadening:   0.030 Ry, ngauss=   0
     DOS =  5.611139 states/spin/Ry/Unit Cell at Ef= 20.443739 eV
     lambda(    1)=  0.0000   gamma=    0.04 GHz
     lambda(    2)=  0.0000   gamma=    0.03 GHz
     lambda(    3)=  0.0000   gamma=    0.03 GHz
     lambda(    4)=  0.2620   gamma=  984.49 GHz
     lambda(    5)=  0.2602   gamma=  977.79 GHz
     lambda(    6)=  0.2551   gamma=  958.90 GHz
     lambda(    7)=  0.0043   gamma=   21.94 GHz
     lambda(    8)=  0.0043   gamma=   21.99 GHz
     lambda(    9)=  0.0043   gamma=   21.99 GHz
     lambda(   10)=  0.2447   gamma= 1475.86 GHz
     lambda(   11)=  0.2439   gamma= 1471.33 GHz
     lambda(   12)=  0.2499   gamma= 1507.19 GHz
     lambda(   13)=  0.0032   gamma=   23.50 GHz
     lambda(   14)=  0.0032   gamma=   23.71 GHz
     lambda(   15)=  0.0032   gamma=   24.05 GHz
     lambda(   16)=  0.0207   gamma=  157.88 GHz
     lambda(   17)=  0.0207   gamma=  158.18 GHz
     lambda(   18)=  0.0203   gamma=  154.82 GHz
     lambda(   19)=  0.0088   gamma=   82.29 GHz
     lambda(   20)=  0.0088   gamma=   82.35 GHz
     lambda(   21)=  0.0088   gamma=   82.60 GHz
     lambda(   22)=  0.0013   gamma=   12.96 GHz
     lambda(   23)=  0.0013   gamma=   12.96 GHz
     lambda(   24)=  0.4907   gamma= 5922.49 GHz
     lambda(   25)=  0.4933   gamma= 5954.22 GHz
     lambda(   26)=  0.0676   gamma=  996.17 GHz
     lambda(   27)=  0.0678   gamma=  999.59 GHz
     lambda(   28)=  0.0674   gamma=  993.61 GHz
     lambda(   29)=  0.0024   gamma=   37.11 GHz
     lambda(   30)=  0.0024   gamma=   36.84 GHz
     lambda(   31)=  0.0024   gamma=   37.38 GHz
     lambda(   32)=  0.0001   gamma=    1.14 GHz
     lambda(   33)=  0.1054   gamma= 2645.31 GHz
     Gaussian Broadening:   0.035 Ry, ngauss=   0
     DOS =  5.552244 states/spin/Ry/Unit Cell at Ef= 20.445745 eV
     lambda(    1)=  0.0000   gamma=    0.05 GHz
     lambda(    2)=  0.0000   gamma=    0.05 GHz
     lambda(    3)=  0.0000   gamma=    0.05 GHz
     lambda(    4)=  0.2321   gamma=  863.27 GHz
     lambda(    5)=  0.2307   gamma=  858.00 GHz
     lambda(    6)=  0.2257   gamma=  839.44 GHz
     lambda(    7)=  0.0047   gamma=   23.83 GHz
     lambda(    8)=  0.0048   gamma=   23.88 GHz
     lambda(    9)=  0.0048   gamma=   23.87 GHz
     lambda(   10)=  0.2122   gamma= 1266.54 GHz
     lambda(   11)=  0.2114   gamma= 1261.98 GHz
     lambda(   12)=  0.2161   gamma= 1289.83 GHz
     lambda(   13)=  0.0041   gamma=   29.93 GHz
     lambda(   14)=  0.0041   gamma=   30.14 GHz
     lambda(   15)=  0.0041   gamma=   30.48 GHz
     lambda(   16)=  0.0229   gamma=  172.56 GHz
     lambda(   17)=  0.0229   gamma=  172.87 GHz
     lambda(   18)=  0.0225   gamma=  169.46 GHz
     lambda(   19)=  0.0078   gamma=   71.97 GHz
     lambda(   20)=  0.0078   gamma=   72.02 GHz
     lambda(   21)=  0.0078   gamma=   72.29 GHz
     lambda(   22)=  0.0014   gamma=   14.20 GHz
     lambda(   23)=  0.0014   gamma=   14.20 GHz
     lambda(   24)=  0.4272   gamma= 5102.44 GHz
     lambda(   25)=  0.4292   gamma= 5125.74 GHz
     lambda(   26)=  0.0597   gamma=  870.34 GHz
     lambda(   27)=  0.0599   gamma=  872.99 GHz
     lambda(   28)=  0.0596   gamma=  868.22 GHz
     lambda(   29)=  0.0027   gamma=   40.45 GHz
     lambda(   30)=  0.0026   gamma=   40.16 GHz
     lambda(   31)=  0.0027   gamma=   40.76 GHz
     lambda(   32)=  0.0001   gamma=    1.56 GHz
     lambda(   33)=  0.0914   gamma= 2267.88 GHz
     Gaussian Broadening:   0.040 Ry, ngauss=   0
     DOS =  5.498034 states/spin/Ry/Unit Cell at Ef= 20.448391 eV
     lambda(    1)=  0.0000   gamma=    0.07 GHz
     lambda(    2)=  0.0000   gamma=    0.07 GHz
     lambda(    3)=  0.0000   gamma=    0.07 GHz
     lambda(    4)=  0.2093   gamma=  770.74 GHz
     lambda(    5)=  0.2081   gamma=  766.47 GHz
     lambda(    6)=  0.2032   gamma=  748.28 GHz
     lambda(    7)=  0.0052   gamma=   25.73 GHz
     lambda(    8)=  0.0052   gamma=   25.77 GHz
     lambda(    9)=  0.0052   gamma=   25.76 GHz
     lambda(   10)=  0.1877   gamma= 1109.36 GHz
     lambda(   11)=  0.1869   gamma= 1104.78 GHz
     lambda(   12)=  0.1907   gamma= 1127.04 GHz
     lambda(   13)=  0.0051   gamma=   37.34 GHz
     lambda(   14)=  0.0052   gamma=   37.51 GHz
     lambda(   15)=  0.0052   gamma=   37.81 GHz
     lambda(   16)=  0.0251   gamma=  187.90 GHz
     lambda(   17)=  0.0252   gamma=  188.20 GHz
     lambda(   18)=  0.0247   gamma=  184.87 GHz
     lambda(   19)=  0.0070   gamma=   64.14 GHz
     lambda(   20)=  0.0070   gamma=   64.19 GHz
     lambda(   21)=  0.0070   gamma=   64.46 GHz
     lambda(   22)=  0.0016   gamma=   15.30 GHz
     lambda(   23)=  0.0016   gamma=   15.30 GHz
     lambda(   24)=  0.3784   gamma= 4474.75 GHz
     lambda(   25)=  0.3799   gamma= 4492.38 GHz
     lambda(   26)=  0.0535   gamma=  772.25 GHz
     lambda(   27)=  0.0537   gamma=  774.55 GHz
     lambda(   28)=  0.0534   gamma=  770.50 GHz
     lambda(   29)=  0.0029   gamma=   44.03 GHz
     lambda(   30)=  0.0029   gamma=   43.71 GHz
     lambda(   31)=  0.0029   gamma=   44.35 GHz
     lambda(   32)=  0.0001   gamma=    2.14 GHz
     lambda(   33)=  0.0810   gamma= 1991.33 GHz
     Gaussian Broadening:   0.045 Ry, ngauss=   0
     DOS =  5.450225 states/spin/Ry/Unit Cell at Ef= 20.451582 eV
     lambda(    1)=  0.0000   gamma=    0.10 GHz
     lambda(    2)=  0.0000   gamma=    0.10 GHz
     lambda(    3)=  0.0000   gamma=    0.09 GHz
     lambda(    4)=  0.1914   gamma=  698.79 GHz
     lambda(    5)=  0.1905   gamma=  695.26 GHz
     lambda(    6)=  0.1856   gamma=  677.54 GHz
     lambda(    7)=  0.0056   gamma=   27.66 GHz
     lambda(    8)=  0.0056   gamma=   27.69 GHz
     lambda(    9)=  0.0056   gamma=   27.69 GHz
     lambda(   10)=  0.1687   gamma=  988.43 GHz
     lambda(   11)=  0.1679   gamma=  983.91 GHz
     lambda(   12)=  0.1710   gamma= 1002.06 GHz
     lambda(   13)=  0.0063   gamma=   45.50 GHz
     lambda(   14)=  0.0063   gamma=   45.64 GHz
     lambda(   15)=  0.0064   gamma=   45.89 GHz
     lambda(   16)=  0.0275   gamma=  203.93 GHz
     lambda(   17)=  0.0276   gamma=  204.22 GHz
     lambda(   18)=  0.0271   gamma=  201.00 GHz
     lambda(   19)=  0.0064   gamma=   58.15 GHz
     lambda(   20)=  0.0064   gamma=   58.20 GHz
     lambda(   21)=  0.0064   gamma=   58.46 GHz
     lambda(   22)=  0.0017   gamma=   16.49 GHz
     lambda(   23)=  0.0017   gamma=   16.49 GHz
     lambda(   24)=  0.3399   gamma= 3985.06 GHz
     lambda(   25)=  0.3411   gamma= 3998.67 GHz
     lambda(   26)=  0.0486   gamma=  695.25 GHz
     lambda(   27)=  0.0487   gamma=  697.40 GHz
     lambda(   28)=  0.0485   gamma=  693.82 GHz
     lambda(   29)=  0.0032   gamma=   47.83 GHz
     lambda(   30)=  0.0032   gamma=   47.50 GHz
     lambda(   31)=  0.0032   gamma=   48.16 GHz
     lambda(   32)=  0.0002   gamma=    3.06 GHz
     lambda(   33)=  0.0730   gamma= 1778.03 GHz
     Gaussian Broadening:   0.050 Ry, ngauss=   0
     DOS =  5.408705 states/spin/Ry/Unit Cell at Ef= 20.455233 eV
     lambda(    1)=  0.0000   gamma=    0.13 GHz
     lambda(    2)=  0.0000   gamma=    0.13 GHz
     lambda(    3)=  0.0000   gamma=    0.12 GHz
     lambda(    4)=  0.1773   gamma=  642.20 GHz
     lambda(    5)=  0.1765   gamma=  639.24 GHz
     lambda(    6)=  0.1717   gamma=  622.10 GHz
     lambda(    7)=  0.0061   gamma=   29.65 GHz
     lambda(    8)=  0.0061   gamma=   29.67 GHz
     lambda(    9)=  0.0061   gamma=   29.67 GHz
     lambda(   10)=  0.1537   gamma=  893.64 GHz
     lambda(   11)=  0.1529   gamma=  889.24 GHz
     lambda(   12)=  0.1555   gamma=  904.28 GHz
     lambda(   13)=  0.0076   gamma=   54.31 GHz
     lambda(   14)=  0.0076   gamma=   54.44 GHz
     lambda(   15)=  0.0076   gamma=   54.65 GHz
     lambda(   16)=  0.0300   gamma=  220.59 GHz
     lambda(   17)=  0.0300   gamma=  220.86 GHz
     lambda(   18)=  0.0296   gamma=  217.77 GHz
     lambda(   19)=  0.0060   gamma=   53.59 GHz
     lambda(   20)=  0.0060   gamma=   53.63 GHz
     lambda(   21)=  0.0060   gamma=   53.88 GHz
     lambda(   22)=  0.0018   gamma=   17.84 GHz
     lambda(   23)=  0.0018   gamma=   17.84 GHz
     lambda(   24)=  0.3091   gamma= 3596.50 GHz
     lambda(   25)=  0.3100   gamma= 3607.18 GHz
     lambda(   26)=  0.0447   gamma=  634.61 GHz
     lambda(   27)=  0.0448   gamma=  636.67 GHz
     lambda(   28)=  0.0446   gamma=  633.44 GHz
     lambda(   29)=  0.0035   gamma=   51.88 GHz
     lambda(   30)=  0.0035   gamma=   51.55 GHz
     lambda(   31)=  0.0035   gamma=   52.22 GHz
     lambda(   32)=  0.0003   gamma=    4.55 GHz
     lambda(   33)=  0.0665   gamma= 1608.50 GHz
 
 
     Number of q in the star =    1
     List of q in the star:
          1   0.000000000   0.000000000   0.000000000
 
     PHONON       :   8m43.72s CPU  14m 9.41s WALL

     INITIALIZATION: 
     phq_setup    :      0.02s CPU      0.10s WALL (       1 calls)
     phq_init     :      6.09s CPU      7.10s WALL (       1 calls)
 
     phq_init     :      6.09s CPU      7.10s WALL (       1 calls)
     set_drhoc    :      0.00s CPU      0.00s WALL (       3 calls)
     init_vloc    :      0.01s CPU      0.04s WALL (       1 calls)
     init_us_1    :      0.07s CPU      0.18s WALL (       1 calls)
     init_us_2    :      0.22s CPU      0.25s WALL (    2376 calls)
     newd         :      0.02s CPU      0.06s WALL (       1 calls)
     dvanqq       :      1.65s CPU      1.66s WALL (       1 calls)
     drho         :      3.23s CPU      4.14s WALL (       1 calls)
     drhous       :      0.72s CPU      0.85s WALL (       1 calls)
     nldyntot     :      0.07s CPU      0.09s WALL (       1 calls)
 
     DYNAMICAL MATRIX:
     dynmat0      :      1.13s CPU      1.20s WALL (       1 calls)
     dynmat_us    :      1.08s CPU      1.12s WALL (       1 calls)
     addusdynmat  :      0.00s CPU      0.00s WALL (       1 calls)
     d2ionq       :      0.04s CPU      0.04s WALL (       1 calls)
     dynmatcc     :      0.01s CPU      0.01s WALL (       1 calls)
     phqscf       :    489.82s CPU    804.91s WALL (       1 calls)
     dynmatrix    :      0.26s CPU      0.30s WALL (       1 calls)
 
     phqscf       :    489.82s CPU    804.91s WALL (       1 calls)
     solve_linter :    484.12s CPU    786.04s WALL (      13 calls)
     sth_kernel   :    183.31s CPU    275.84s WALL (      77 calls)
     h_prec       :     16.64s CPU     16.92s WALL (    1386 calls)
     apply_dpot_b :     33.30s CPU     50.74s WALL (    3492 calls)
     ortho        :      8.14s CPU      8.38s WALL (    3492 calls)
     cgsolve      :     81.33s CPU     99.18s WALL (    3492 calls)
     incdrhoscf   :     31.15s CPU     46.90s WALL (    3492 calls)
                                        0.00s GPU  (    3492 calls)
     addusddens   :      9.41s CPU     15.19s WALL (      90 calls)
     vpsifft      :      6.02s CPU      9.34s WALL (     594 calls)
     dv_of_drho   :      1.78s CPU      1.97s WALL (     194 calls)
     mix_pot      :     21.42s CPU     75.97s WALL (      77 calls)
     ef_shift     :      7.14s CPU     10.69s WALL (      77 calls)
     ef_shift_wfc :      0.04s CPU      8.99s WALL (      13 calls)
     localdos     :      6.57s CPU      6.87s WALL (      13 calls)
     drhodv       :      5.67s CPU      7.97s WALL (      13 calls)
     psymdvscf    :     66.02s CPU     66.73s WALL (      77 calls)
     newdq        :     17.07s CPU     17.21s WALL (      77 calls)
     adddvscf     :      0.43s CPU      0.47s WALL (    3492 calls)
     com_dvloc    :      7.30s CPU     11.16s WALL (    1056 calls)
                                        0.00s GPU  (    1056 calls)
     addcore      :      0.37s CPU      0.47s WALL (    1316 calls)
                                        0.00s GPU  (    1316 calls)
     drhodvus     :      9.24s CPU     24.52s WALL (      13 calls)
 
     dvqpsi_us    :      9.97s CPU     13.97s WALL (     594 calls)
                                        0.00s GPU  (     594 calls)
     dvqpsi_us_on :      1.89s CPU      1.92s WALL (     594 calls)
 
     add_vuspsi   :      1.40s CPU      1.54s WALL (   62077 calls)
     addusdbec    :      0.25s CPU      0.27s WALL (    4086 calls)
 
     drhodvus     :      9.24s CPU     24.52s WALL (      13 calls)
 
      Electron-phonon coupling
     elphel       :      6.92s CPU     13.63s WALL (      13 calls)
     elphsum      :     26.55s CPU     26.90s WALL (       1 calls)
 
      General routines
     calbec       :     12.40s CPU     12.94s WALL (  134522 calls)
     fft          :      8.61s CPU     12.66s WALL (    4996 calls)
     ffts         :      8.21s CPU     12.51s WALL (    4247 calls)
     fftw         :    122.61s CPU    171.37s WALL ( 1156404 calls)
     davcio       :      1.58s CPU    124.26s WALL (   16450 calls)
     write_rec    :      0.17s CPU     86.00s WALL (      90 calls)
 
      Additional routines
     ch_psi       :     80.08s CPU     97.80s WALL (   62077 calls)
     last         :      5.03s CPU      5.53s WALL (   62077 calls)
     Hesh         :      0.16s CPU      0.18s WALL (   62077 calls)
     ch_psi_all_k :      4.61s CPU      5.07s WALL (   62077 calls)
                                        0.00s GPU  (   62077 calls)
     ch_psi_calbe :      1.50s CPU      1.64s WALL (   62077 calls)
                                        0.00s GPU  (   62077 calls)
     h_psi_bgrp   :     73.06s CPU     90.08s WALL (   62077 calls)
     h_psi        :     72.91s CPU     89.92s WALL (   62077 calls)
     h_psi:pot    :     72.67s CPU     89.66s WALL (   62077 calls)
     h_psi:calbec :      1.88s CPU      2.07s WALL (   62077 calls)
     s_psi_bgrp   :      3.19s CPU      3.50s WALL (  127646 calls)
     s_psi        :      2.76s CPU      3.04s WALL (  127646 calls)
 
 
     PHONON       :   8m43.72s CPU  14m 9.42s WALL

 
   This run was terminated on:  12:52: 9  22Oct2025            

=------------------------------------------------------------------------------=
   JOB DONE.
=------------------------------------------------------------------------------=
