
     Program PHONON v.7.4.1 starts on 22Oct2025 at 14: 0:16 

     This program is part of the open-source Quantum ESPRESSO suite
     for quantum simulation of materials; please cite
         "P. Giannozzi et al., J. Phys.:Condens. Matter 21 395502 (2009);
         "P. Giannozzi et al., J. Phys.:Condens. Matter 29 465901 (2017);
         "P. Giannozzi et al., J. Chem. Phys. 152 154105 (2020);
          URL http://www.quantum-espresso.org", 
     in publications or presentations arising from this work. More details at
     http://www.quantum-espresso.org/quote

     Parallel version (MPI), running on    48 processors

     MPI processes distributed on     1 nodes
     180852 MiB available memory on the printing compute node when the environment starts
 
     Waiting for input...
     Reading input from standard input

     Reading xml data from directory:

     ./tmp/La1H10.save/
 
     K-points division:     npool     =       4
     R & G space division:  proc/nbgrp/npool/nimage =      12
     Subspace diagonalization in iterative solution of the eigenvalue problem:
     a serial algorithm will be used

     file La.pbe-spfn-kjpaw_psl.1.0.0.UPF: wavefunction(s)  5S 5D 4F renormalized
     file H.pbe-kjpaw_psl.1.0.0.UPF: wavefunction(s)  1S renormalized

     IMPORTANT: XC functional enforced from input :
     Exchange-correlation= PBE
                           (   1   4   3   4   0   0   0)
     Any further DFT definition will be discarded
     Please, verify this is what you really want

 
     Parallelization info
     --------------------
     sticks:   dense  smooth     PW     G-vecs:    dense   smooth      PW
     Min         231      77     23                 8029     1540     259
     Max         232      78     24                 8031     1543     261
     Sum        2773     925    283                96353    18499    3119
 
     Using Slab Decomposition
 
     Reading collected, re-writing distributed wavefunctions in ./tmp/


     Dynamical matrices for ( 6, 6, 6)  uniform grid of q-points
     (  16 q-points):
       N         xq(1)         xq(2)         xq(3) 
       1   0.000000000   0.000000000   0.000000000
       2   0.117851130   0.117851130  -0.117851130
       3   0.235702260   0.235702260  -0.235702260
       4  -0.353553391  -0.353553391   0.353553391
       5   0.235702260   0.000000000   0.000000000
       6   0.353553391   0.117851130  -0.117851130
       7  -0.235702260  -0.471404521   0.471404521
       8  -0.117851130  -0.353553391   0.353553391
       9   0.000000000  -0.235702260   0.235702260
      10   0.471404521   0.000000000   0.000000000
      11  -0.117851130  -0.589255651   0.589255651
      12  -0.000000000  -0.471404521   0.471404521
      13  -0.707106781   0.000000000   0.000000000
      14  -0.235702260  -0.471404521   0.707106781
      15  -0.117851130  -0.353553391   0.589255651
      16  -0.707106781   0.235702260   0.000000000

     Number and degeneracy of irreps per q-point
       N         xq(1)         xq(2)         xq(3)   N irreps
       1   0.000000000   0.000000000   0.000000000      13
        1   2   3   3   3   3   1   2   3   3   3   3   3
       2   0.117851130   0.117851130  -0.117851130      22
        1   1   1   1   1   1   1   1   1   1   1   2   2   2   2   2   2   2
   2   2   2   2
       3   0.235702260   0.235702260  -0.235702260      22
        1   1   1   1   1   1   1   1   1   1   1   2   2   2   2   2   2   2
   2   2   2   2
       4  -0.353553391  -0.353553391   0.353553391      22
        1   1   1   1   1   2   2   2   2   2   1   1   1   1   1   1   2   2
   2   2   2   2
       5   0.235702260   0.000000000   0.000000000      24
        1   1   1   1   1   1   1   1   1   1   1   1   1   1   1   2   2   2
   2   2   2   2   2   2
       6   0.353553391   0.117851130  -0.117851130      33
     No degeneracy
       7  -0.235702260  -0.471404521   0.471404521      33
     No degeneracy
       8  -0.117851130  -0.353553391   0.353553391      33
     No degeneracy
       9   0.000000000  -0.235702260   0.235702260      33
     No degeneracy
      10   0.471404521   0.000000000   0.000000000      24
        1   1   1   1   1   1   1   1   1   1   1   1   1   1   1   2   2   2
   2   2   2   2   2   2
      11  -0.117851130  -0.589255651   0.589255651      33
     No degeneracy
      12  -0.000000000  -0.471404521   0.471404521      33
     No degeneracy
      13  -0.707106781   0.000000000   0.000000000      24
        1   1   1   1   1   1   1   2   2   2   2   1   1   1   1   1   1   1
   1   2   2   2   2   2
      14  -0.235702260  -0.471404521   0.707106781      33
     No degeneracy
      15  -0.117851130  -0.353553391   0.589255651      33
     No degeneracy
Eigenvectors exchange needed    7   16
      16  -0.707106781   0.235702260   0.000000000      32
        1   1   1   1   1   1   2   1   1   1   1   1   1   1   1   1   1   1
   1   1   1   1   1   1   1   1   1   1   1   1   1   1

     Saving dvscf to file. Distribute only q points, not irreducible representations.

     Calculation of q =   -0.1178511  -0.3535534   0.3535534
 
     Parallelization info
     --------------------
     sticks:   dense  smooth     PW     G-vecs:    dense   smooth      PW
     Min         231      77     26                 8029     1540     293
     Max         232      78     27                 8031     1543     295
     Sum        2773     925    313                96353    18499    3527
 
     Using Slab Decomposition
 

     Title: 
     Electron-phonon coefficients for La1H10                                    


     bravais-lattice index     =            0
     lattice parameter (alat)  =       6.4716  a.u.
     unit-cell volume          =     191.6541 (a.u.)^3
     number of atoms/cell      =           11
     number of atomic types    =            2
     number of electrons       =        21.00
     number of Kohn-Sham states=           15
     kinetic-energy cutoff     =      80.0000  Ry
     charge density cutoff     =     960.0000  Ry
     Exchange-correlation= PBE
                           (   1   4   3   4   0   0   0)

     celldm(1)=   6.471590  celldm(2)=   0.000000  celldm(3)=   0.000000
     celldm(4)=   0.000000  celldm(5)=   0.000000  celldm(6)=   0.000000

     crystal axes: (cart. coord. in units of alat)
               a(1) = (   0.000000   0.707107   0.707107 )  
               a(2) = (   0.707107   0.000000   0.707107 )  
               a(3) = (   0.707107   0.707107   0.000000 )  

     reciprocal axes: (cart. coord. in units 2 pi/alat)
               b(1) = ( -0.707107  0.707107  0.707107 )  
               b(2) = (  0.707107 -0.707107  0.707107 )  
               b(3) = (  0.707107  0.707107 -0.707107 )  


     PseudoPot. # 1 for La read from file:
     /work/home/mayuan/workplace/1.typical_hydride/003.MH10/1.LaH10/250/Tc-666-paw/pp/La.pbe-spfn-kjpaw_psl.1.0.0.UPF
     MD5 check sum: ccc10218a00d76b68822f6b8f5772390
     Pseudo is Projector augmented-wave + core cor, Zval = 11.0
     Generated using 'atomic' code by A. Dal Corso  v.7.1
     Shape of augmentation charge: PSQ
     Using radial grid of 1253 points,  8 beta functions with: 
                l(1) =   0
                l(2) =   0
                l(3) =   1
                l(4) =   1
                l(5) =   2
                l(6) =   2
                l(7) =   3
                l(8) =   3
     Q(r) pseudized with 0 coefficients 


     PseudoPot. # 2 for H  read from file:
     /work/home/mayuan/workplace/1.typical_hydride/003.MH10/1.LaH10/250/Tc-666-paw/pp/H.pbe-kjpaw_psl.1.0.0.UPF
     MD5 check sum: 3bb27c602ede137025941d095c9090b7
     Pseudo is Projector augmented-wave, Zval =  1.0
     Generated using 'atomic' code by A. Dal Corso  v.7.1
     Shape of augmentation charge: PSQ
     Using radial grid of  929 points,  2 beta functions with: 
                l(1) =   0
                l(2) =   0
     Q(r) pseudized with 0 coefficients 


     atomic species   valence    mass     pseudopotential
     La               11.00   138.90547     La( 1.00)
     H                 1.00     1.00794     H ( 1.00)

     48 Sym. Ops., with inversion, found



   Cartesian axes

     site n.     atom                  positions (alat units)
         1        La     tau(   1) = (   0.0000000   0.0000000   0.0000000  )
         2        H      tau(   2) = (   0.3535534   0.3535534   0.3535534  )
         3        H      tau(   3) = (   1.0606602   1.0606602   1.0606602  )
         4        H      tau(   4) = (   0.8776866   0.8776866   0.8776866  )
         5        H      tau(   5) = (   0.5365270   0.5365270   0.5365270  )
         6        H      tau(   6) = (   0.5365270   0.5365270   0.8776866  )
         7        H      tau(   7) = (   0.8776866   0.8776866   0.5365270  )
         8        H      tau(   8) = (   0.5365270   0.8776866   0.5365270  )
         9        H      tau(   9) = (   0.8776866   0.5365270   0.8776866  )
        10        H      tau(  10) = (   0.8776866   0.5365270   0.5365270  )
        11        H      tau(  11) = (   0.5365270   0.8776866   0.8776866  )

     number of k points=  1872  Gaussian smearing, width (Ry)=  0.0200

     Number of k-points >= 100: set verbosity='high' to print them.

     Dense  grid:    96353 G-vectors     FFT dimensions: (  64,  64,  64)

     Smooth grid:    18499 G-vectors     FFT dimensions: (  40,  40,  40)

     Estimated max dynamical RAM per process >      32.67 MB

     Estimated total dynamical RAM >       1.53 GB

     The potential is recalculated from file :
     ./tmp/_ph0/La1H10.q_8/La1H10.save/charge-density

     Starting wfcs are   30 atomic wfcs
     Checking if some PAW data can be deallocated... 

     Band Structure Calculation
     Davidson diagonalization with overlap

     ethr =  4.76E-11,  avg # of iterations = 30.6

     total cpu time spent up to now is       47.6 secs

     End of band structure calculation

     Number of k-points >= 100: set verbosity='high' to print the bands.

     the Fermi energy is    20.4236 ev

     Writing config to output data dir ./tmp/_ph0/La1H10.q_8/La1H10.save/ :
     XML data file

     Electron-phonon coefficients for La1H10                                    

     bravais-lattice index     =            0
     lattice parameter (alat)  =       6.4716  a.u.
     unit-cell volume          =     191.6541 (a.u.)^3
     number of atoms/cell      =           11
     number of atomic types    =            2
     kinetic-energy cut-off    =      80.0000  Ry
     charge density cut-off    =     960.0000  Ry
     convergence threshold     =      1.0E-14
     beta                      =       0.3000
     number of iterations used =            4
     Exchange-correlation= PBE
                           (   1   4   3   4   0   0   0)


     celldm(1)=    6.47159  celldm(2)=    0.00000  celldm(3)=    0.00000
     celldm(4)=    0.00000  celldm(5)=    0.00000  celldm(6)=    0.00000

     crystal axes: (cart. coord. in units of alat)
               a(1) = (  0.0000  0.7071  0.7071 )  
               a(2) = (  0.7071  0.0000  0.7071 )  
               a(3) = (  0.7071  0.7071  0.0000 )  

     reciprocal axes: (cart. coord. in units 2 pi/alat)
               b(1) = ( -0.7071  0.7071  0.7071 )  
               b(2) = (  0.7071 -0.7071  0.7071 )  
               b(3) = (  0.7071  0.7071 -0.7071 )  


     Atoms inside the unit cell: 

     Cartesian axes

     site n.  atom      mass           positions (alat units)
        1  La    138.9055   tau(    1) = (    0.00000    0.00000    0.00000  )
        2  H       1.0079   tau(    2) = (    0.35355    0.35355    0.35355  )
        3  H       1.0079   tau(    3) = (    1.06066    1.06066    1.06066  )
        4  H       1.0079   tau(    4) = (    0.87769    0.87769    0.87769  )
        5  H       1.0079   tau(    5) = (    0.53653    0.53653    0.53653  )
        6  H       1.0079   tau(    6) = (    0.53653    0.53653    0.87769  )
        7  H       1.0079   tau(    7) = (    0.87769    0.87769    0.53653  )
        8  H       1.0079   tau(    8) = (    0.53653    0.87769    0.53653  )
        9  H       1.0079   tau(    9) = (    0.87769    0.53653    0.87769  )
       10  H       1.0079   tau(   10) = (    0.87769    0.53653    0.53653  )
       11  H       1.0079   tau(   11) = (    0.53653    0.87769    0.87769  )

     Computing dynamical matrix for 
                    q = (  -0.1178511  -0.3535534   0.3535534 )
 
      2 Sym.Ops. (no q -> -q+G )


     G cutoff = 1018.4355  (   8029 G-vectors)     FFT grid: ( 64, 64, 64)
     G cutoff =  339.4785  (   1542 G-vectors)  smooth grid: ( 40, 40, 40)

     number of k points=  1872  Gaussian smearing, width (Ry)=  0.0200

     PseudoPot. # 1 for La read from file:
     /work/home/mayuan/workplace/1.typical_hydride/003.MH10/1.LaH10/250/Tc-666-paw/pp/La.pbe-spfn-kjpaw_psl.1.0.0.UPF
     MD5 check sum: ccc10218a00d76b68822f6b8f5772390
     Pseudo is Projector augmented-wave + core cor, Zval = 11.0
     Generated using 'atomic' code by A. Dal Corso  v.7.1
     Shape of augmentation charge: PSQ
     Using radial grid of 1253 points,  8 beta functions with: 
                l(1) =   0
                l(2) =   0
                l(3) =   1
                l(4) =   1
                l(5) =   2
                l(6) =   2
                l(7) =   3
                l(8) =   3
     Q(r) pseudized with 0 coefficients 


     PseudoPot. # 2 for H  read from file:
     /work/home/mayuan/workplace/1.typical_hydride/003.MH10/1.LaH10/250/Tc-666-paw/pp/H.pbe-kjpaw_psl.1.0.0.UPF
     MD5 check sum: 3bb27c602ede137025941d095c9090b7
     Pseudo is Projector augmented-wave, Zval =  1.0
     Generated using 'atomic' code by A. Dal Corso  v.7.1
     Shape of augmentation charge: PSQ
     Using radial grid of  929 points,  2 beta functions with: 
                l(1) =   0
                l(2) =   0
     Q(r) pseudized with 0 coefficients 


     Mode symmetry, C_s (m)     point group:


     Atomic displacements:
     There are   33 irreducible representations

     Representation     1      1 modes -  To be done

     Representation     2      1 modes -  To be done

     Representation     3      1 modes -  To be done

     Representation     4      1 modes -  To be done

     Representation     5      1 modes -  To be done

     Representation     6      1 modes -  To be done

     Representation     7      1 modes -  To be done

     Representation     8      1 modes -  To be done

     Representation     9      1 modes -  To be done

     Representation    10      1 modes -  To be done

     Representation    11      1 modes -  To be done

     Representation    12      1 modes -  To be done

     Representation    13      1 modes -  To be done

     Representation    14      1 modes -  To be done

     Representation    15      1 modes -  To be done

     Representation    16      1 modes -  To be done

     Representation    17      1 modes -  To be done

     Representation    18      1 modes -  To be done

     Representation    19      1 modes -  To be done

     Representation    20      1 modes -  To be done

     Representation    21      1 modes -  To be done

     Representation    22      1 modes -  To be done

     Representation    23      1 modes -  To be done

     Representation    24      1 modes -  To be done

     Representation    25      1 modes -  To be done

     Representation    26      1 modes -  To be done

     Representation    27      1 modes -  To be done

     Representation    28      1 modes -  To be done

     Representation    29      1 modes -  To be done

     Representation    30      1 modes -  To be done

     Representation    31      1 modes -  To be done

     Representation    32      1 modes -  To be done

     Representation    33      1 modes -  To be done


     Message from routine init_vloc:
     Interpolation table for Vloc re-allocated

     Alpha used in Ewald sum =   2.8000
     PHONON       :   1m13.18s CPU   1m34.25s WALL



     Representation #   1 mode #   1

     Self-consistent Calculation

      iter #   1 total cpu time :   123.2 secs   av.it.:   5.1
      thresh= 1.000E-02 alpha_mix =  0.300 |ddv_scf|^2 =  1.360E-06

      iter #   2 total cpu time :   156.7 secs   av.it.:  11.2
      thresh= 1.166E-04 alpha_mix =  0.300 |ddv_scf|^2 =  1.705E-06

      iter #   3 total cpu time :   187.4 secs   av.it.:  10.0
      thresh= 1.306E-04 alpha_mix =  0.300 |ddv_scf|^2 =  4.890E-09

      iter #   4 total cpu time :   220.4 secs   av.it.:  11.5
      thresh= 6.993E-06 alpha_mix =  0.300 |ddv_scf|^2 =  7.413E-10

      iter #   5 total cpu time :   252.0 secs   av.it.:  12.4
      thresh= 2.723E-06 alpha_mix =  0.300 |ddv_scf|^2 =  6.029E-11

      iter #   6 total cpu time :   288.0 secs   av.it.:  12.4
      thresh= 7.764E-07 alpha_mix =  0.300 |ddv_scf|^2 =  5.599E-12

      iter #   7 total cpu time :   327.4 secs   av.it.:  12.0
      thresh= 2.366E-07 alpha_mix =  0.300 |ddv_scf|^2 =  1.387E-12

      iter #   8 total cpu time :   360.0 secs   av.it.:  11.9
      thresh= 1.178E-07 alpha_mix =  0.300 |ddv_scf|^2 =  9.701E-13

      iter #   9 total cpu time :   394.3 secs   av.it.:  11.5
      thresh= 9.849E-08 alpha_mix =  0.300 |ddv_scf|^2 =  6.204E-14

      iter #  10 total cpu time :   426.2 secs   av.it.:  11.9
      thresh= 2.491E-08 alpha_mix =  0.300 |ddv_scf|^2 =  2.938E-14

      iter #  11 total cpu time :   461.1 secs   av.it.:  11.3
      thresh= 1.714E-08 alpha_mix =  0.300 |ddv_scf|^2 =  9.211E-15

     End of self-consistent calculation

     Convergence has been achieved 


     Representation #   2 mode #   2

     Self-consistent Calculation

      iter #   1 total cpu time :   515.4 secs   av.it.:   4.9
      thresh= 1.000E-02 alpha_mix =  0.300 |ddv_scf|^2 =  4.215E-07

      iter #   2 total cpu time :   541.9 secs   av.it.:  11.3
      thresh= 6.493E-05 alpha_mix =  0.300 |ddv_scf|^2 =  4.806E-07

      iter #   3 total cpu time :   575.4 secs   av.it.:  10.0
      thresh= 6.932E-05 alpha_mix =  0.300 |ddv_scf|^2 =  4.706E-09

      iter #   4 total cpu time :   604.6 secs   av.it.:  11.7
      thresh= 6.860E-06 alpha_mix =  0.300 |ddv_scf|^2 =  5.649E-10

      iter #   5 total cpu time :   635.2 secs   av.it.:  12.1
      thresh= 2.377E-06 alpha_mix =  0.300 |ddv_scf|^2 =  8.282E-11

      iter #   6 total cpu time :   669.1 secs   av.it.:  12.4
      thresh= 9.100E-07 alpha_mix =  0.300 |ddv_scf|^2 =  8.072E-12

      iter #   7 total cpu time :   702.4 secs   av.it.:  12.1
      thresh= 2.841E-07 alpha_mix =  0.300 |ddv_scf|^2 =  1.624E-12

      iter #   8 total cpu time :   732.8 secs   av.it.:  12.4
      thresh= 1.274E-07 alpha_mix =  0.300 |ddv_scf|^2 =  3.930E-13

      iter #   9 total cpu time :   766.9 secs   av.it.:  11.3
      thresh= 6.269E-08 alpha_mix =  0.300 |ddv_scf|^2 =  1.228E-13

      iter #  10 total cpu time :   796.7 secs   av.it.:  11.9
      thresh= 3.504E-08 alpha_mix =  0.300 |ddv_scf|^2 =  1.272E-14

      iter #  11 total cpu time :   828.5 secs   av.it.:  11.8
      thresh= 1.128E-08 alpha_mix =  0.300 |ddv_scf|^2 =  7.432E-15

     End of self-consistent calculation

     Convergence has been achieved 


     Representation #   3 mode #   3

     Self-consistent Calculation

      iter #   1 total cpu time :   872.9 secs   av.it.:   7.9
      thresh= 1.000E-02 alpha_mix =  0.300 |ddv_scf|^2 =  1.581E-04

      iter #   2 total cpu time :   898.0 secs   av.it.:  11.0
      thresh= 1.257E-03 alpha_mix =  0.300 |ddv_scf|^2 =  2.027E-04

      iter #   3 total cpu time :   928.7 secs   av.it.:   9.9
      thresh= 1.424E-03 alpha_mix =  0.300 |ddv_scf|^2 =  2.908E-07

      iter #   4 total cpu time :   959.9 secs   av.it.:  11.1
      thresh= 5.393E-05 alpha_mix =  0.300 |ddv_scf|^2 =  3.338E-08

      iter #   5 total cpu time :   990.7 secs   av.it.:  12.2
      thresh= 1.827E-05 alpha_mix =  0.300 |ddv_scf|^2 =  4.830E-09

      iter #   6 total cpu time :  1021.4 secs   av.it.:  12.5
      thresh= 6.950E-06 alpha_mix =  0.300 |ddv_scf|^2 =  2.586E-10

      iter #   7 total cpu time :  1051.1 secs   av.it.:  11.8
      thresh= 1.608E-06 alpha_mix =  0.300 |ddv_scf|^2 =  3.991E-11

      iter #   8 total cpu time :  1080.6 secs   av.it.:  12.1
      thresh= 6.317E-07 alpha_mix =  0.300 |ddv_scf|^2 =  3.326E-12

      iter #   9 total cpu time :  1113.6 secs   av.it.:  11.9
      thresh= 1.824E-07 alpha_mix =  0.300 |ddv_scf|^2 =  6.311E-13

      iter #  10 total cpu time :  1145.2 secs   av.it.:  11.6
      thresh= 7.944E-08 alpha_mix =  0.300 |ddv_scf|^2 =  2.247E-13

      iter #  11 total cpu time :  1181.3 secs   av.it.:  11.6
      thresh= 4.740E-08 alpha_mix =  0.300 |ddv_scf|^2 =  2.630E-14

      iter #  12 total cpu time :  1218.1 secs   av.it.:  11.8
      thresh= 1.622E-08 alpha_mix =  0.300 |ddv_scf|^2 =  3.512E-15

     End of self-consistent calculation

     Convergence has been achieved 


     Representation #   4 mode #   4

     Self-consistent Calculation

      iter #   1 total cpu time :  1257.6 secs   av.it.:   5.4
      thresh= 1.000E-02 alpha_mix =  0.300 |ddv_scf|^2 =  3.427E-06

      iter #   2 total cpu time :  1284.6 secs   av.it.:  11.1
      thresh= 1.851E-04 alpha_mix =  0.300 |ddv_scf|^2 =  4.490E-06

      iter #   3 total cpu time :  1310.9 secs   av.it.:   9.9
      thresh= 2.119E-04 alpha_mix =  0.300 |ddv_scf|^2 =  6.143E-09

      iter #   4 total cpu time :  1338.0 secs   av.it.:  11.5
      thresh= 7.838E-06 alpha_mix =  0.300 |ddv_scf|^2 =  9.183E-10

      iter #   5 total cpu time :  1365.7 secs   av.it.:  12.4
      thresh= 3.030E-06 alpha_mix =  0.300 |ddv_scf|^2 =  6.091E-11

      iter #   6 total cpu time :  1391.9 secs   av.it.:  12.3
      thresh= 7.804E-07 alpha_mix =  0.300 |ddv_scf|^2 =  8.092E-12

      iter #   7 total cpu time :  1421.7 secs   av.it.:  12.1
      thresh= 2.845E-07 alpha_mix =  0.300 |ddv_scf|^2 =  1.284E-12

      iter #   8 total cpu time :  1454.1 secs   av.it.:  11.9
      thresh= 1.133E-07 alpha_mix =  0.300 |ddv_scf|^2 =  8.166E-13

      iter #   9 total cpu time :  1484.2 secs   av.it.:  11.2
      thresh= 9.036E-08 alpha_mix =  0.300 |ddv_scf|^2 =  8.476E-14

      iter #  10 total cpu time :  1517.4 secs   av.it.:  12.3
      thresh= 2.911E-08 alpha_mix =  0.300 |ddv_scf|^2 =  6.982E-15

     End of self-consistent calculation

     Convergence has been achieved 


     Representation #   5 mode #   5

     Self-consistent Calculation

      iter #   1 total cpu time :  1561.8 secs   av.it.:   4.9
      thresh= 1.000E-02 alpha_mix =  0.300 |ddv_scf|^2 =  4.794E-07

      iter #   2 total cpu time :  1587.5 secs   av.it.:  11.3
      thresh= 6.924E-05 alpha_mix =  0.300 |ddv_scf|^2 =  5.228E-07

      iter #   3 total cpu time :  1613.4 secs   av.it.:  10.1
      thresh= 7.230E-05 alpha_mix =  0.300 |ddv_scf|^2 =  5.668E-09

      iter #   4 total cpu time :  1642.8 secs   av.it.:  11.4
      thresh= 7.529E-06 alpha_mix =  0.300 |ddv_scf|^2 =  6.702E-10

      iter #   5 total cpu time :  1669.8 secs   av.it.:  12.3
      thresh= 2.589E-06 alpha_mix =  0.300 |ddv_scf|^2 =  6.731E-11

      iter #   6 total cpu time :  1702.7 secs   av.it.:  12.3
      thresh= 8.204E-07 alpha_mix =  0.300 |ddv_scf|^2 =  8.281E-12

      iter #   7 total cpu time :  1732.7 secs   av.it.:  12.1
      thresh= 2.878E-07 alpha_mix =  0.300 |ddv_scf|^2 =  1.310E-12

      iter #   8 total cpu time :  1764.4 secs   av.it.:  12.3
      thresh= 1.145E-07 alpha_mix =  0.300 |ddv_scf|^2 =  2.974E-13

      iter #   9 total cpu time :  1797.5 secs   av.it.:  10.9
      thresh= 5.454E-08 alpha_mix =  0.300 |ddv_scf|^2 =  1.015E-13

      iter #  10 total cpu time :  1830.2 secs   av.it.:  11.9
      thresh= 3.186E-08 alpha_mix =  0.300 |ddv_scf|^2 =  1.996E-14

      iter #  11 total cpu time :  1864.6 secs   av.it.:  11.5
      thresh= 1.413E-08 alpha_mix =  0.300 |ddv_scf|^2 =  1.126E-14

      iter #  12 total cpu time :  1899.1 secs   av.it.:  11.3
      thresh= 1.061E-08 alpha_mix =  0.300 |ddv_scf|^2 =  8.872E-16

     End of self-consistent calculation

     Convergence has been achieved 


     Representation #   6 mode #   6

     Self-consistent Calculation

      iter #   1 total cpu time :  1946.6 secs   av.it.:   5.0
      thresh= 1.000E-02 alpha_mix =  0.300 |ddv_scf|^2 =  1.208E-06

      iter #   2 total cpu time :  1973.0 secs   av.it.:  11.1
      thresh= 1.099E-04 alpha_mix =  0.300 |ddv_scf|^2 =  1.434E-06

      iter #   3 total cpu time :  2002.4 secs   av.it.:   9.9
      thresh= 1.198E-04 alpha_mix =  0.300 |ddv_scf|^2 =  6.052E-09

      iter #   4 total cpu time :  2033.7 secs   av.it.:  11.3
      thresh= 7.779E-06 alpha_mix =  0.300 |ddv_scf|^2 =  7.255E-10

      iter #   5 total cpu time :  2064.2 secs   av.it.:  12.3
      thresh= 2.694E-06 alpha_mix =  0.300 |ddv_scf|^2 =  5.837E-11

      iter #   6 total cpu time :  2096.1 secs   av.it.:  12.2
      thresh= 7.640E-07 alpha_mix =  0.300 |ddv_scf|^2 =  6.985E-12

      iter #   7 total cpu time :  2127.5 secs   av.it.:  12.0
      thresh= 2.643E-07 alpha_mix =  0.300 |ddv_scf|^2 =  1.476E-12

      iter #   8 total cpu time :  2158.0 secs   av.it.:  11.8
      thresh= 1.215E-07 alpha_mix =  0.300 |ddv_scf|^2 =  1.081E-12

      iter #   9 total cpu time :  2189.2 secs   av.it.:  11.2
      thresh= 1.040E-07 alpha_mix =  0.300 |ddv_scf|^2 =  8.755E-14

      iter #  10 total cpu time :  2221.6 secs   av.it.:  11.9
      thresh= 2.959E-08 alpha_mix =  0.300 |ddv_scf|^2 =  4.876E-14

      iter #  11 total cpu time :  2255.1 secs   av.it.:  11.3
      thresh= 2.208E-08 alpha_mix =  0.300 |ddv_scf|^2 =  7.618E-15

     End of self-consistent calculation

     Convergence has been achieved 


     Representation #   7 mode #   7

     Self-consistent Calculation

      iter #   1 total cpu time :  2300.9 secs   av.it.:   5.1
      thresh= 1.000E-02 alpha_mix =  0.300 |ddv_scf|^2 =  6.950E-07

      iter #   2 total cpu time :  2329.9 secs   av.it.:  11.3
      thresh= 8.337E-05 alpha_mix =  0.300 |ddv_scf|^2 =  6.942E-07

      iter #   3 total cpu time :  2359.8 secs   av.it.:  10.1
      thresh= 8.332E-05 alpha_mix =  0.300 |ddv_scf|^2 =  1.140E-08

      iter #   4 total cpu time :  2393.8 secs   av.it.:  11.2
      thresh= 1.068E-05 alpha_mix =  0.300 |ddv_scf|^2 =  8.953E-10

      iter #   5 total cpu time :  2425.5 secs   av.it.:  12.1
      thresh= 2.992E-06 alpha_mix =  0.300 |ddv_scf|^2 =  9.876E-11

      iter #   6 total cpu time :  2463.4 secs   av.it.:  12.4
      thresh= 9.938E-07 alpha_mix =  0.300 |ddv_scf|^2 =  9.660E-12

      iter #   7 total cpu time :  2494.0 secs   av.it.:  11.9
      thresh= 3.108E-07 alpha_mix =  0.300 |ddv_scf|^2 =  2.031E-12

      iter #   8 total cpu time :  2527.9 secs   av.it.:  12.3
      thresh= 1.425E-07 alpha_mix =  0.300 |ddv_scf|^2 =  3.852E-13

      iter #   9 total cpu time :  2562.3 secs   av.it.:  11.4
      thresh= 6.206E-08 alpha_mix =  0.300 |ddv_scf|^2 =  1.665E-13

      iter #  10 total cpu time :  2593.7 secs   av.it.:  11.6
      thresh= 4.080E-08 alpha_mix =  0.300 |ddv_scf|^2 =  1.233E-14

      iter #  11 total cpu time :  2626.1 secs   av.it.:  12.0
      thresh= 1.110E-08 alpha_mix =  0.300 |ddv_scf|^2 =  7.498E-15

     End of self-consistent calculation

     Convergence has been achieved 


     Representation #   8 mode #   8

     Self-consistent Calculation

      iter #   1 total cpu time :  2672.6 secs   av.it.:   5.1
      thresh= 1.000E-02 alpha_mix =  0.300 |ddv_scf|^2 =  1.964E-06

      iter #   2 total cpu time :  2698.4 secs   av.it.:  11.1
      thresh= 1.402E-04 alpha_mix =  0.300 |ddv_scf|^2 =  2.625E-06

      iter #   3 total cpu time :  2727.1 secs   av.it.:   9.9
      thresh= 1.620E-04 alpha_mix =  0.300 |ddv_scf|^2 =  3.108E-09

      iter #   4 total cpu time :  2757.4 secs   av.it.:  11.6
      thresh= 5.575E-06 alpha_mix =  0.300 |ddv_scf|^2 =  6.235E-10

      iter #   5 total cpu time :  2787.3 secs   av.it.:  12.2
      thresh= 2.497E-06 alpha_mix =  0.300 |ddv_scf|^2 =  6.749E-11

      iter #   6 total cpu time :  2819.3 secs   av.it.:  12.3
      thresh= 8.216E-07 alpha_mix =  0.300 |ddv_scf|^2 =  6.230E-12

      iter #   7 total cpu time :  2848.6 secs   av.it.:  11.9
      thresh= 2.496E-07 alpha_mix =  0.300 |ddv_scf|^2 =  1.446E-12

      iter #   8 total cpu time :  2880.7 secs   av.it.:  12.0
      thresh= 1.203E-07 alpha_mix =  0.300 |ddv_scf|^2 =  8.090E-13

      iter #   9 total cpu time :  2911.9 secs   av.it.:  11.1
      thresh= 8.994E-08 alpha_mix =  0.300 |ddv_scf|^2 =  7.999E-14

      iter #  10 total cpu time :  2944.2 secs   av.it.:  12.2
      thresh= 2.828E-08 alpha_mix =  0.300 |ddv_scf|^2 =  9.308E-15

     End of self-consistent calculation

     Convergence has been achieved 


     Representation #   9 mode #   9

     Self-consistent Calculation

      iter #   1 total cpu time :  2992.7 secs   av.it.:   4.9
      thresh= 1.000E-02 alpha_mix =  0.300 |ddv_scf|^2 =  7.209E-07

      iter #   2 total cpu time :  3020.0 secs   av.it.:  11.2
      thresh= 8.491E-05 alpha_mix =  0.300 |ddv_scf|^2 =  8.480E-07

      iter #   3 total cpu time :  3048.0 secs   av.it.:  10.0
      thresh= 9.209E-05 alpha_mix =  0.300 |ddv_scf|^2 =  4.812E-09

      iter #   4 total cpu time :  3076.9 secs   av.it.:  11.3
      thresh= 6.937E-06 alpha_mix =  0.300 |ddv_scf|^2 =  6.078E-10

      iter #   5 total cpu time :  3110.5 secs   av.it.:  12.0
      thresh= 2.465E-06 alpha_mix =  0.300 |ddv_scf|^2 =  9.856E-11

      iter #   6 total cpu time :  3141.1 secs   av.it.:  12.5
      thresh= 9.928E-07 alpha_mix =  0.300 |ddv_scf|^2 =  7.208E-12

      iter #   7 total cpu time :  3174.2 secs   av.it.:  11.7
      thresh= 2.685E-07 alpha_mix =  0.300 |ddv_scf|^2 =  1.970E-12

      iter #   8 total cpu time :  3207.1 secs   av.it.:  12.4
      thresh= 1.404E-07 alpha_mix =  0.300 |ddv_scf|^2 =  3.662E-13

      iter #   9 total cpu time :  3239.5 secs   av.it.:  11.1
      thresh= 6.052E-08 alpha_mix =  0.300 |ddv_scf|^2 =  8.857E-14

      iter #  10 total cpu time :  3276.1 secs   av.it.:  12.1
      thresh= 2.976E-08 alpha_mix =  0.300 |ddv_scf|^2 =  6.607E-15

     End of self-consistent calculation

     Convergence has been achieved 


     Representation #  10 mode #  10

     Self-consistent Calculation

      iter #   1 total cpu time :  3321.4 secs   av.it.:   5.1
      thresh= 1.000E-02 alpha_mix =  0.300 |ddv_scf|^2 =  2.095E-07

      iter #   2 total cpu time :  3353.3 secs   av.it.:  11.6
      thresh= 4.577E-05 alpha_mix =  0.300 |ddv_scf|^2 =  2.195E-08

      iter #   3 total cpu time :  3382.3 secs   av.it.:  11.5
      thresh= 1.482E-05 alpha_mix =  0.300 |ddv_scf|^2 =  1.248E-08

      iter #   4 total cpu time :  3411.8 secs   av.it.:  10.8
      thresh= 1.117E-05 alpha_mix =  0.300 |ddv_scf|^2 =  1.161E-09

      iter #   5 total cpu time :  3442.7 secs   av.it.:  11.8
      thresh= 3.408E-06 alpha_mix =  0.300 |ddv_scf|^2 =  1.106E-10

      iter #   6 total cpu time :  3475.3 secs   av.it.:  12.5
      thresh= 1.052E-06 alpha_mix =  0.300 |ddv_scf|^2 =  1.008E-11

      iter #   7 total cpu time :  3507.1 secs   av.it.:  11.9
      thresh= 3.176E-07 alpha_mix =  0.300 |ddv_scf|^2 =  2.360E-12

      iter #   8 total cpu time :  3540.0 secs   av.it.:  12.6
      thresh= 1.536E-07 alpha_mix =  0.300 |ddv_scf|^2 =  1.620E-13

      iter #   9 total cpu time :  3572.3 secs   av.it.:  12.2
      thresh= 4.025E-08 alpha_mix =  0.300 |ddv_scf|^2 =  2.945E-14

      iter #  10 total cpu time :  3604.8 secs   av.it.:  11.8
      thresh= 1.716E-08 alpha_mix =  0.300 |ddv_scf|^2 =  1.597E-14

      iter #  11 total cpu time :  3640.6 secs   av.it.:  11.2
      thresh= 1.264E-08 alpha_mix =  0.300 |ddv_scf|^2 =  1.907E-15

     End of self-consistent calculation

     Convergence has been achieved 


     Representation #  11 mode #  11

     Self-consistent Calculation

      iter #   1 total cpu time :  3686.1 secs   av.it.:   4.8
      thresh= 1.000E-02 alpha_mix =  0.300 |ddv_scf|^2 =  1.791E-07

      iter #   2 total cpu time :  3718.0 secs   av.it.:  11.6
      thresh= 4.232E-05 alpha_mix =  0.300 |ddv_scf|^2 =  8.538E-08

      iter #   3 total cpu time :  3746.1 secs   av.it.:  10.6
      thresh= 2.922E-05 alpha_mix =  0.300 |ddv_scf|^2 =  1.244E-08

      iter #   4 total cpu time :  3778.7 secs   av.it.:  10.8
      thresh= 1.116E-05 alpha_mix =  0.300 |ddv_scf|^2 =  6.806E-10

      iter #   5 total cpu time :  3811.5 secs   av.it.:  12.2
      thresh= 2.609E-06 alpha_mix =  0.300 |ddv_scf|^2 =  6.996E-11

      iter #   6 total cpu time :  3842.6 secs   av.it.:  12.3
      thresh= 8.364E-07 alpha_mix =  0.300 |ddv_scf|^2 =  7.689E-12

      iter #   7 total cpu time :  3877.5 secs   av.it.:  12.1
      thresh= 2.773E-07 alpha_mix =  0.300 |ddv_scf|^2 =  1.372E-12

      iter #   8 total cpu time :  3911.8 secs   av.it.:  12.4
      thresh= 1.171E-07 alpha_mix =  0.300 |ddv_scf|^2 =  2.067E-13

      iter #   9 total cpu time :  3942.4 secs   av.it.:  11.4
      thresh= 4.546E-08 alpha_mix =  0.300 |ddv_scf|^2 =  1.151E-13

      iter #  10 total cpu time :  3980.7 secs   av.it.:  11.7
      thresh= 3.392E-08 alpha_mix =  0.300 |ddv_scf|^2 =  2.016E-14

      iter #  11 total cpu time :  4014.3 secs   av.it.:  11.6
      thresh= 1.420E-08 alpha_mix =  0.300 |ddv_scf|^2 =  1.055E-14

      iter #  12 total cpu time :  4048.1 secs   av.it.:  11.3
      thresh= 1.027E-08 alpha_mix =  0.300 |ddv_scf|^2 =  8.682E-16

     End of self-consistent calculation

     Convergence has been achieved 


     Representation #  12 mode #  12

     Self-consistent Calculation

      iter #   1 total cpu time :  4095.8 secs   av.it.:   4.9
      thresh= 1.000E-02 alpha_mix =  0.300 |ddv_scf|^2 =  8.935E-07

      iter #   2 total cpu time :  4128.0 secs   av.it.:  11.1
      thresh= 9.453E-05 alpha_mix =  0.300 |ddv_scf|^2 =  1.112E-06

      iter #   3 total cpu time :  4158.1 secs   av.it.:  10.0
      thresh= 1.054E-04 alpha_mix =  0.300 |ddv_scf|^2 =  3.996E-09

      iter #   4 total cpu time :  4189.1 secs   av.it.:  11.5
      thresh= 6.321E-06 alpha_mix =  0.300 |ddv_scf|^2 =  5.591E-10

      iter #   5 total cpu time :  4218.3 secs   av.it.:  12.0
      thresh= 2.365E-06 alpha_mix =  0.300 |ddv_scf|^2 =  9.453E-11

      iter #   6 total cpu time :  4253.0 secs   av.it.:  12.4
      thresh= 9.723E-07 alpha_mix =  0.300 |ddv_scf|^2 =  7.407E-12

      iter #   7 total cpu time :  4285.7 secs   av.it.:  11.7
      thresh= 2.722E-07 alpha_mix =  0.300 |ddv_scf|^2 =  1.951E-12

      iter #   8 total cpu time :  4316.0 secs   av.it.:  12.4
      thresh= 1.397E-07 alpha_mix =  0.300 |ddv_scf|^2 =  3.384E-13

      iter #   9 total cpu time :  4349.8 secs   av.it.:  11.2
      thresh= 5.817E-08 alpha_mix =  0.300 |ddv_scf|^2 =  1.065E-13

      iter #  10 total cpu time :  4387.4 secs   av.it.:  11.9
      thresh= 3.263E-08 alpha_mix =  0.300 |ddv_scf|^2 =  8.281E-15

     End of self-consistent calculation

     Convergence has been achieved 


     Representation #  13 mode #  13

     Self-consistent Calculation

      iter #   1 total cpu time :  4431.2 secs   av.it.:   5.1
      thresh= 1.000E-02 alpha_mix =  0.300 |ddv_scf|^2 =  1.532E-06

      iter #   2 total cpu time :  4459.5 secs   av.it.:  11.1
      thresh= 1.238E-04 alpha_mix =  0.300 |ddv_scf|^2 =  1.969E-06

      iter #   3 total cpu time :  4488.9 secs   av.it.:   9.9
      thresh= 1.403E-04 alpha_mix =  0.300 |ddv_scf|^2 =  4.347E-09

      iter #   4 total cpu time :  4520.2 secs   av.it.:  11.5
      thresh= 6.593E-06 alpha_mix =  0.300 |ddv_scf|^2 =  7.242E-10

      iter #   5 total cpu time :  4552.3 secs   av.it.:  12.4
      thresh= 2.691E-06 alpha_mix =  0.300 |ddv_scf|^2 =  6.382E-11

      iter #   6 total cpu time :  4586.7 secs   av.it.:  12.4
      thresh= 7.989E-07 alpha_mix =  0.300 |ddv_scf|^2 =  5.562E-12

      iter #   7 total cpu time :  4621.0 secs   av.it.:  12.0
      thresh= 2.358E-07 alpha_mix =  0.300 |ddv_scf|^2 =  1.405E-12

      iter #   8 total cpu time :  4654.8 secs   av.it.:  11.8
      thresh= 1.185E-07 alpha_mix =  0.300 |ddv_scf|^2 =  9.964E-13

      iter #   9 total cpu time :  4686.2 secs   av.it.:  11.6
      thresh= 9.982E-08 alpha_mix =  0.300 |ddv_scf|^2 =  5.255E-14

      iter #  10 total cpu time :  4716.2 secs   av.it.:  12.0
      thresh= 2.292E-08 alpha_mix =  0.300 |ddv_scf|^2 =  9.782E-15

     End of self-consistent calculation

     Convergence has been achieved 


     Representation #  14 mode #  14

     Self-consistent Calculation

      iter #   1 total cpu time :  4765.9 secs   av.it.:   5.0
      thresh= 1.000E-02 alpha_mix =  0.300 |ddv_scf|^2 =  1.872E-06

      iter #   2 total cpu time :  4793.2 secs   av.it.:  11.0
      thresh= 1.368E-04 alpha_mix =  0.300 |ddv_scf|^2 =  2.399E-06

      iter #   3 total cpu time :  4820.6 secs   av.it.:   9.9
      thresh= 1.549E-04 alpha_mix =  0.300 |ddv_scf|^2 =  4.468E-09

      iter #   4 total cpu time :  4850.9 secs   av.it.:  11.4
      thresh= 6.685E-06 alpha_mix =  0.300 |ddv_scf|^2 =  6.929E-10

      iter #   5 total cpu time :  4881.8 secs   av.it.:  12.1
      thresh= 2.632E-06 alpha_mix =  0.300 |ddv_scf|^2 =  6.995E-11

      iter #   6 total cpu time :  4912.3 secs   av.it.:  12.3
      thresh= 8.364E-07 alpha_mix =  0.300 |ddv_scf|^2 =  5.940E-12

      iter #   7 total cpu time :  4942.2 secs   av.it.:  11.8
      thresh= 2.437E-07 alpha_mix =  0.300 |ddv_scf|^2 =  1.447E-12

      iter #   8 total cpu time :  4972.3 secs   av.it.:  12.2
      thresh= 1.203E-07 alpha_mix =  0.300 |ddv_scf|^2 =  6.213E-13

      iter #   9 total cpu time :  5004.2 secs   av.it.:  11.0
      thresh= 7.882E-08 alpha_mix =  0.300 |ddv_scf|^2 =  7.801E-14

      iter #  10 total cpu time :  5036.9 secs   av.it.:  11.9
      thresh= 2.793E-08 alpha_mix =  0.300 |ddv_scf|^2 =  4.497E-14

      iter #  11 total cpu time :  5066.0 secs   av.it.:  11.2
      thresh= 2.121E-08 alpha_mix =  0.300 |ddv_scf|^2 =  6.922E-15

     End of self-consistent calculation

     Convergence has been achieved 


     Representation #  15 mode #  15

     Self-consistent Calculation

      iter #   1 total cpu time :  5107.8 secs   av.it.:   5.1
      thresh= 1.000E-02 alpha_mix =  0.300 |ddv_scf|^2 =  1.663E-06

      iter #   2 total cpu time :  5134.5 secs   av.it.:  11.1
      thresh= 1.290E-04 alpha_mix =  0.300 |ddv_scf|^2 =  2.185E-06

      iter #   3 total cpu time :  5163.2 secs   av.it.:   9.9
      thresh= 1.478E-04 alpha_mix =  0.300 |ddv_scf|^2 =  3.382E-09

      iter #   4 total cpu time :  5194.4 secs   av.it.:  11.6
      thresh= 5.815E-06 alpha_mix =  0.300 |ddv_scf|^2 =  6.318E-10

      iter #   5 total cpu time :  5227.7 secs   av.it.:  12.2
      thresh= 2.514E-06 alpha_mix =  0.300 |ddv_scf|^2 =  7.123E-11

      iter #   6 total cpu time :  5262.0 secs   av.it.:  12.4
      thresh= 8.440E-07 alpha_mix =  0.300 |ddv_scf|^2 =  5.793E-12

      iter #   7 total cpu time :  5294.3 secs   av.it.:  11.9
      thresh= 2.407E-07 alpha_mix =  0.300 |ddv_scf|^2 =  1.482E-12

      iter #   8 total cpu time :  5328.0 secs   av.it.:  12.0
      thresh= 1.217E-07 alpha_mix =  0.300 |ddv_scf|^2 =  8.331E-13

      iter #   9 total cpu time :  5360.7 secs   av.it.:  11.3
      thresh= 9.127E-08 alpha_mix =  0.300 |ddv_scf|^2 =  6.543E-14

      iter #  10 total cpu time :  5398.2 secs   av.it.:  12.1
      thresh= 2.558E-08 alpha_mix =  0.300 |ddv_scf|^2 =  1.686E-14

      iter #  11 total cpu time :  5432.2 secs   av.it.:  11.6
      thresh= 1.298E-08 alpha_mix =  0.300 |ddv_scf|^2 =  7.554E-15

     End of self-consistent calculation

     Convergence has been achieved 


     Representation #  16 mode #  16

     Self-consistent Calculation

      iter #   1 total cpu time :  5483.6 secs   av.it.:   5.1
      thresh= 1.000E-02 alpha_mix =  0.300 |ddv_scf|^2 =  3.952E-07

      iter #   2 total cpu time :  5517.0 secs   av.it.:  11.4
      thresh= 6.287E-05 alpha_mix =  0.300 |ddv_scf|^2 =  3.328E-07

      iter #   3 total cpu time :  5540.9 secs   av.it.:  10.2
      thresh= 5.769E-05 alpha_mix =  0.300 |ddv_scf|^2 =  1.262E-08

      iter #   4 total cpu time :  5569.9 secs   av.it.:  11.2
      thresh= 1.123E-05 alpha_mix =  0.300 |ddv_scf|^2 =  1.039E-09

      iter #   5 total cpu time :  5599.6 secs   av.it.:  12.2
      thresh= 3.223E-06 alpha_mix =  0.300 |ddv_scf|^2 =  8.579E-11

      iter #   6 total cpu time :  5633.3 secs   av.it.:  12.4
      thresh= 9.262E-07 alpha_mix =  0.300 |ddv_scf|^2 =  9.932E-12

      iter #   7 total cpu time :  5662.7 secs   av.it.:  12.2
      thresh= 3.152E-07 alpha_mix =  0.300 |ddv_scf|^2 =  1.620E-12

      iter #   8 total cpu time :  5693.0 secs   av.it.:  12.3
      thresh= 1.273E-07 alpha_mix =  0.300 |ddv_scf|^2 =  3.359E-13

      iter #   9 total cpu time :  5722.7 secs   av.it.:  11.3
      thresh= 5.796E-08 alpha_mix =  0.300 |ddv_scf|^2 =  1.270E-13

      iter #  10 total cpu time :  5754.2 secs   av.it.:  11.8
      thresh= 3.564E-08 alpha_mix =  0.300 |ddv_scf|^2 =  1.965E-14

      iter #  11 total cpu time :  5791.9 secs   av.it.:  11.9
      thresh= 1.402E-08 alpha_mix =  0.300 |ddv_scf|^2 =  1.058E-14

      iter #  12 total cpu time :  5827.9 secs   av.it.:  11.1
      thresh= 1.029E-08 alpha_mix =  0.300 |ddv_scf|^2 =  9.026E-16

     End of self-consistent calculation

     Convergence has been achieved 


     Representation #  17 mode #  17

     Self-consistent Calculation

      iter #   1 total cpu time :  5875.7 secs   av.it.:   5.1
      thresh= 1.000E-02 alpha_mix =  0.300 |ddv_scf|^2 =  9.969E-07

      iter #   2 total cpu time :  5907.4 secs   av.it.:  11.1
      thresh= 9.985E-05 alpha_mix =  0.300 |ddv_scf|^2 =  1.282E-06

      iter #   3 total cpu time :  5938.5 secs   av.it.:  10.0
      thresh= 1.132E-04 alpha_mix =  0.300 |ddv_scf|^2 =  6.082E-09

      iter #   4 total cpu time :  5969.2 secs   av.it.:  12.0
      thresh= 7.799E-06 alpha_mix =  0.300 |ddv_scf|^2 =  4.343E-10

      iter #   5 total cpu time :  6001.3 secs   av.it.:  11.9
      thresh= 2.084E-06 alpha_mix =  0.300 |ddv_scf|^2 =  8.240E-11

      iter #   6 total cpu time :  6033.5 secs   av.it.:  12.3
      thresh= 9.077E-07 alpha_mix =  0.300 |ddv_scf|^2 =  7.911E-12

      iter #   7 total cpu time :  6066.2 secs   av.it.:  11.9
      thresh= 2.813E-07 alpha_mix =  0.300 |ddv_scf|^2 =  1.842E-12

      iter #   8 total cpu time :  6099.1 secs   av.it.:  12.3
      thresh= 1.357E-07 alpha_mix =  0.300 |ddv_scf|^2 =  2.174E-13

      iter #   9 total cpu time :  6133.3 secs   av.it.:  11.7
      thresh= 4.663E-08 alpha_mix =  0.300 |ddv_scf|^2 =  1.669E-13

      iter #  10 total cpu time :  6167.4 secs   av.it.:  11.1
      thresh= 4.086E-08 alpha_mix =  0.300 |ddv_scf|^2 =  1.236E-14

      iter #  11 total cpu time :  6204.5 secs   av.it.:  12.2
      thresh= 1.112E-08 alpha_mix =  0.300 |ddv_scf|^2 =  3.158E-15

     End of self-consistent calculation

     Convergence has been achieved 


     Representation #  18 mode #  18

     Self-consistent Calculation

      iter #   1 total cpu time :  6252.9 secs   av.it.:   5.4
      thresh= 1.000E-02 alpha_mix =  0.300 |ddv_scf|^2 =  3.543E-06

      iter #   2 total cpu time :  6282.4 secs   av.it.:  11.0
      thresh= 1.882E-04 alpha_mix =  0.300 |ddv_scf|^2 =  4.767E-06

      iter #   3 total cpu time :  6313.0 secs   av.it.:   9.9
      thresh= 2.183E-04 alpha_mix =  0.300 |ddv_scf|^2 =  4.135E-09

      iter #   4 total cpu time :  6345.4 secs   av.it.:  11.7
      thresh= 6.431E-06 alpha_mix =  0.300 |ddv_scf|^2 =  7.255E-10

      iter #   5 total cpu time :  6377.6 secs   av.it.:  12.1
      thresh= 2.694E-06 alpha_mix =  0.300 |ddv_scf|^2 =  9.764E-11

      iter #   6 total cpu time :  6410.5 secs   av.it.:  12.5
      thresh= 9.881E-07 alpha_mix =  0.300 |ddv_scf|^2 =  6.630E-12

      iter #   7 total cpu time :  6441.9 secs   av.it.:  11.8
      thresh= 2.575E-07 alpha_mix =  0.300 |ddv_scf|^2 =  1.889E-12

      iter #   8 total cpu time :  6473.5 secs   av.it.:  12.6
      thresh= 1.374E-07 alpha_mix =  0.300 |ddv_scf|^2 =  5.489E-13

      iter #   9 total cpu time :  6506.0 secs   av.it.:  10.9
      thresh= 7.409E-08 alpha_mix =  0.300 |ddv_scf|^2 =  9.169E-14

      iter #  10 total cpu time :  6541.0 secs   av.it.:  12.0
      thresh= 3.028E-08 alpha_mix =  0.300 |ddv_scf|^2 =  3.123E-14

      iter #  11 total cpu time :  6572.5 secs   av.it.:  11.3
      thresh= 1.767E-08 alpha_mix =  0.300 |ddv_scf|^2 =  9.567E-15

     End of self-consistent calculation

     Convergence has been achieved 


     Representation #  19 mode #  19

     Self-consistent Calculation

      iter #   1 total cpu time :  6622.8 secs   av.it.:   7.5
      thresh= 1.000E-02 alpha_mix =  0.300 |ddv_scf|^2 =  5.405E-05

      iter #   2 total cpu time :  6649.9 secs   av.it.:  11.0
      thresh= 7.352E-04 alpha_mix =  0.300 |ddv_scf|^2 =  7.132E-05

      iter #   3 total cpu time :  6677.4 secs   av.it.:   9.9
      thresh= 8.445E-04 alpha_mix =  0.300 |ddv_scf|^2 =  1.380E-07

      iter #   4 total cpu time :  6706.4 secs   av.it.:  11.7
      thresh= 3.715E-05 alpha_mix =  0.300 |ddv_scf|^2 =  2.349E-08

      iter #   5 total cpu time :  6740.2 secs   av.it.:  12.4
      thresh= 1.533E-05 alpha_mix =  0.300 |ddv_scf|^2 =  2.501E-09

      iter #   6 total cpu time :  6772.9 secs   av.it.:  12.0
      thresh= 5.001E-06 alpha_mix =  0.300 |ddv_scf|^2 =  4.011E-10

      iter #   7 total cpu time :  6807.6 secs   av.it.:  12.1
      thresh= 2.003E-06 alpha_mix =  0.300 |ddv_scf|^2 =  3.124E-11

      iter #   8 total cpu time :  6841.1 secs   av.it.:  11.8
      thresh= 5.590E-07 alpha_mix =  0.300 |ddv_scf|^2 =  5.204E-12

      iter #   9 total cpu time :  6874.5 secs   av.it.:  12.2
      thresh= 2.281E-07 alpha_mix =  0.300 |ddv_scf|^2 =  1.575E-12

      iter #  10 total cpu time :  6907.3 secs   av.it.:  11.1
      thresh= 1.255E-07 alpha_mix =  0.300 |ddv_scf|^2 =  1.166E-12

      iter #  11 total cpu time :  6945.5 secs   av.it.:  11.4
      thresh= 1.080E-07 alpha_mix =  0.300 |ddv_scf|^2 =  3.322E-14

      iter #  12 total cpu time :  6982.1 secs   av.it.:  12.2
      thresh= 1.823E-08 alpha_mix =  0.300 |ddv_scf|^2 =  3.416E-15

     End of self-consistent calculation

     Convergence has been achieved 


     Representation #  20 mode #  20

     Self-consistent Calculation

      iter #   1 total cpu time :  7028.3 secs   av.it.:   5.0
      thresh= 1.000E-02 alpha_mix =  0.300 |ddv_scf|^2 =  1.085E-06

      iter #   2 total cpu time :  7058.4 secs   av.it.:  11.1
      thresh= 1.042E-04 alpha_mix =  0.300 |ddv_scf|^2 =  1.443E-06

      iter #   3 total cpu time :  7087.9 secs   av.it.:   9.9
      thresh= 1.201E-04 alpha_mix =  0.300 |ddv_scf|^2 =  3.292E-09

      iter #   4 total cpu time :  7123.1 secs   av.it.:  11.8
      thresh= 5.738E-06 alpha_mix =  0.300 |ddv_scf|^2 =  4.746E-10

      iter #   5 total cpu time :  7153.3 secs   av.it.:  12.1
      thresh= 2.179E-06 alpha_mix =  0.300 |ddv_scf|^2 =  8.332E-11

      iter #   6 total cpu time :  7185.4 secs   av.it.:  12.4
      thresh= 9.128E-07 alpha_mix =  0.300 |ddv_scf|^2 =  7.228E-12

      iter #   7 total cpu time :  7218.0 secs   av.it.:  12.0
      thresh= 2.689E-07 alpha_mix =  0.300 |ddv_scf|^2 =  1.613E-12

      iter #   8 total cpu time :  7246.0 secs   av.it.:  12.5
      thresh= 1.270E-07 alpha_mix =  0.300 |ddv_scf|^2 =  1.719E-13

      iter #   9 total cpu time :  7273.9 secs   av.it.:  12.0
      thresh= 4.146E-08 alpha_mix =  0.300 |ddv_scf|^2 =  1.172E-13

      iter #  10 total cpu time :  7305.0 secs   av.it.:  11.1
      thresh= 3.424E-08 alpha_mix =  0.300 |ddv_scf|^2 =  1.109E-14

      iter #  11 total cpu time :  7335.2 secs   av.it.:  12.1
      thresh= 1.053E-08 alpha_mix =  0.300 |ddv_scf|^2 =  3.618E-15

     End of self-consistent calculation

     Convergence has been achieved 


     Representation #  21 mode #  21

     Self-consistent Calculation

      iter #   1 total cpu time :  7375.2 secs   av.it.:   4.5
      thresh= 1.000E-02 alpha_mix =  0.300 |ddv_scf|^2 =  1.634E-08

      iter #   2 total cpu time :  7402.8 secs   av.it.:  11.5
      thresh= 1.278E-05 alpha_mix =  0.300 |ddv_scf|^2 =  3.536E-09

      iter #   3 total cpu time :  7438.2 secs   av.it.:  12.2
      thresh= 5.946E-06 alpha_mix =  0.300 |ddv_scf|^2 =  2.046E-10

      iter #   4 total cpu time :  7467.7 secs   av.it.:  12.5
      thresh= 1.430E-06 alpha_mix =  0.300 |ddv_scf|^2 =  8.632E-12

      iter #   5 total cpu time :  7498.6 secs   av.it.:  12.3
      thresh= 2.938E-07 alpha_mix =  0.300 |ddv_scf|^2 =  7.985E-13

      iter #   6 total cpu time :  7529.6 secs   av.it.:  12.3
      thresh= 8.936E-08 alpha_mix =  0.300 |ddv_scf|^2 =  1.438E-13

      iter #   7 total cpu time :  7566.1 secs   av.it.:  12.4
      thresh= 3.792E-08 alpha_mix =  0.300 |ddv_scf|^2 =  4.027E-15

     End of self-consistent calculation

     Convergence has been achieved 


     Representation #  22 mode #  22

     Self-consistent Calculation

      iter #   1 total cpu time :  7609.2 secs   av.it.:   4.5
      thresh= 1.000E-02 alpha_mix =  0.300 |ddv_scf|^2 =  1.402E-08

      iter #   2 total cpu time :  7640.7 secs   av.it.:  11.6
      thresh= 1.184E-05 alpha_mix =  0.300 |ddv_scf|^2 =  3.326E-09

      iter #   3 total cpu time :  7669.1 secs   av.it.:  12.3
      thresh= 5.767E-06 alpha_mix =  0.300 |ddv_scf|^2 =  2.006E-10

      iter #   4 total cpu time :  7699.8 secs   av.it.:  12.5
      thresh= 1.416E-06 alpha_mix =  0.300 |ddv_scf|^2 =  9.029E-12

      iter #   5 total cpu time :  7729.5 secs   av.it.:  12.4
      thresh= 3.005E-07 alpha_mix =  0.300 |ddv_scf|^2 =  8.113E-13

      iter #   6 total cpu time :  7761.5 secs   av.it.:  12.5
      thresh= 9.007E-08 alpha_mix =  0.300 |ddv_scf|^2 =  1.286E-13

      iter #   7 total cpu time :  7792.9 secs   av.it.:  12.4
      thresh= 3.586E-08 alpha_mix =  0.300 |ddv_scf|^2 =  3.462E-15

     End of self-consistent calculation

     Convergence has been achieved 


     Representation #  23 mode #  23

     Self-consistent Calculation

      iter #   1 total cpu time :  7839.8 secs   av.it.:   4.4
      thresh= 1.000E-02 alpha_mix =  0.300 |ddv_scf|^2 =  1.119E-08

      iter #   2 total cpu time :  7867.3 secs   av.it.:  11.7
      thresh= 1.058E-05 alpha_mix =  0.300 |ddv_scf|^2 =  2.603E-09

      iter #   3 total cpu time :  7895.2 secs   av.it.:  12.3
      thresh= 5.102E-06 alpha_mix =  0.300 |ddv_scf|^2 =  1.487E-10

      iter #   4 total cpu time :  7923.5 secs   av.it.:  12.5
      thresh= 1.219E-06 alpha_mix =  0.300 |ddv_scf|^2 =  7.944E-12

      iter #   5 total cpu time :  7953.7 secs   av.it.:  12.3
      thresh= 2.819E-07 alpha_mix =  0.300 |ddv_scf|^2 =  8.534E-13

      iter #   6 total cpu time :  7983.5 secs   av.it.:  12.5
      thresh= 9.238E-08 alpha_mix =  0.300 |ddv_scf|^2 =  1.128E-13

      iter #   7 total cpu time :  8014.5 secs   av.it.:  12.4
      thresh= 3.359E-08 alpha_mix =  0.300 |ddv_scf|^2 =  3.419E-15

     End of self-consistent calculation

     Convergence has been achieved 


     Representation #  24 mode #  24

     Self-consistent Calculation

      iter #   1 total cpu time :  8059.4 secs   av.it.:   4.7
      thresh= 1.000E-02 alpha_mix =  0.300 |ddv_scf|^2 =  3.640E-08

      iter #   2 total cpu time :  8091.1 secs   av.it.:  11.5
      thresh= 1.908E-05 alpha_mix =  0.300 |ddv_scf|^2 =  6.313E-09

      iter #   3 total cpu time :  8127.6 secs   av.it.:  12.3
      thresh= 7.946E-06 alpha_mix =  0.300 |ddv_scf|^2 =  2.251E-10

      iter #   4 total cpu time :  8159.2 secs   av.it.:  12.5
      thresh= 1.500E-06 alpha_mix =  0.300 |ddv_scf|^2 =  1.351E-11

      iter #   5 total cpu time :  8192.0 secs   av.it.:  12.5
      thresh= 3.676E-07 alpha_mix =  0.300 |ddv_scf|^2 =  8.295E-13

      iter #   6 total cpu time :  8230.3 secs   av.it.:  12.3
      thresh= 9.108E-08 alpha_mix =  0.300 |ddv_scf|^2 =  1.651E-13

      iter #   7 total cpu time :  8261.8 secs   av.it.:  12.6
      thresh= 4.064E-08 alpha_mix =  0.300 |ddv_scf|^2 =  5.381E-15

     End of self-consistent calculation

     Convergence has been achieved 


     Representation #  25 mode #  25

     Self-consistent Calculation

      iter #   1 total cpu time :  8312.1 secs   av.it.:   4.7
      thresh= 1.000E-02 alpha_mix =  0.300 |ddv_scf|^2 =  3.283E-08

      iter #   2 total cpu time :  8341.3 secs   av.it.:  11.5
      thresh= 1.812E-05 alpha_mix =  0.300 |ddv_scf|^2 =  5.857E-09

      iter #   3 total cpu time :  8375.9 secs   av.it.:  12.3
      thresh= 7.653E-06 alpha_mix =  0.300 |ddv_scf|^2 =  2.118E-10

      iter #   4 total cpu time :  8407.4 secs   av.it.:  12.4
      thresh= 1.455E-06 alpha_mix =  0.300 |ddv_scf|^2 =  1.479E-11

      iter #   5 total cpu time :  8439.1 secs   av.it.:  12.4
      thresh= 3.846E-07 alpha_mix =  0.300 |ddv_scf|^2 =  9.955E-13

      iter #   6 total cpu time :  8474.7 secs   av.it.:  12.4
      thresh= 9.977E-08 alpha_mix =  0.300 |ddv_scf|^2 =  1.158E-13

      iter #   7 total cpu time :  8510.7 secs   av.it.:  12.4
      thresh= 3.404E-08 alpha_mix =  0.300 |ddv_scf|^2 =  5.751E-15

     End of self-consistent calculation

     Convergence has been achieved 


     Representation #  26 mode #  26

     Self-consistent Calculation

      iter #   1 total cpu time :  8559.5 secs   av.it.:   4.7
      thresh= 1.000E-02 alpha_mix =  0.300 |ddv_scf|^2 =  3.283E-08

      iter #   2 total cpu time :  8590.1 secs   av.it.:  11.5
      thresh= 1.812E-05 alpha_mix =  0.300 |ddv_scf|^2 =  5.857E-09

      iter #   3 total cpu time :  8623.3 secs   av.it.:  12.3
      thresh= 7.653E-06 alpha_mix =  0.300 |ddv_scf|^2 =  2.118E-10

      iter #   4 total cpu time :  8657.2 secs   av.it.:  12.4
      thresh= 1.455E-06 alpha_mix =  0.300 |ddv_scf|^2 =  1.479E-11

      iter #   5 total cpu time :  8694.3 secs   av.it.:  12.4
      thresh= 3.846E-07 alpha_mix =  0.300 |ddv_scf|^2 =  9.955E-13

      iter #   6 total cpu time :  8727.9 secs   av.it.:  12.4
      thresh= 9.977E-08 alpha_mix =  0.300 |ddv_scf|^2 =  1.158E-13

      iter #   7 total cpu time :  8761.2 secs   av.it.:  12.4
      thresh= 3.404E-08 alpha_mix =  0.300 |ddv_scf|^2 =  5.751E-15

     End of self-consistent calculation

     Convergence has been achieved 


     Representation #  27 mode #  27

     Self-consistent Calculation

      iter #   1 total cpu time :  8808.6 secs   av.it.:   4.7
      thresh= 1.000E-02 alpha_mix =  0.300 |ddv_scf|^2 =  3.630E-08

      iter #   2 total cpu time :  8837.0 secs   av.it.:  11.5
      thresh= 1.905E-05 alpha_mix =  0.300 |ddv_scf|^2 =  6.370E-09

      iter #   3 total cpu time :  8870.2 secs   av.it.:  12.3
      thresh= 7.981E-06 alpha_mix =  0.300 |ddv_scf|^2 =  2.212E-10

      iter #   4 total cpu time :  8900.6 secs   av.it.:  12.5
      thresh= 1.487E-06 alpha_mix =  0.300 |ddv_scf|^2 =  1.417E-11

      iter #   5 total cpu time :  8933.5 secs   av.it.:  12.5
      thresh= 3.765E-07 alpha_mix =  0.300 |ddv_scf|^2 =  1.021E-12

      iter #   6 total cpu time :  8965.7 secs   av.it.:  12.4
      thresh= 1.011E-07 alpha_mix =  0.300 |ddv_scf|^2 =  1.469E-13

      iter #   7 total cpu time :  8995.8 secs   av.it.:  12.5
      thresh= 3.833E-08 alpha_mix =  0.300 |ddv_scf|^2 =  5.958E-15

     End of self-consistent calculation

     Convergence has been achieved 


     Representation #  28 mode #  28

     Self-consistent Calculation

      iter #   1 total cpu time :  9044.0 secs   av.it.:   4.2
      thresh= 1.000E-02 alpha_mix =  0.300 |ddv_scf|^2 =  6.181E-09

      iter #   2 total cpu time :  9072.9 secs   av.it.:  11.8
      thresh= 7.862E-06 alpha_mix =  0.300 |ddv_scf|^2 =  1.669E-09

      iter #   3 total cpu time :  9101.7 secs   av.it.:  12.3
      thresh= 4.085E-06 alpha_mix =  0.300 |ddv_scf|^2 =  1.134E-10

      iter #   4 total cpu time :  9130.7 secs   av.it.:  12.3
      thresh= 1.065E-06 alpha_mix =  0.300 |ddv_scf|^2 =  6.678E-12

      iter #   5 total cpu time :  9162.2 secs   av.it.:  12.3
      thresh= 2.584E-07 alpha_mix =  0.300 |ddv_scf|^2 =  6.831E-13

      iter #   6 total cpu time :  9195.9 secs   av.it.:  12.5
      thresh= 8.265E-08 alpha_mix =  0.300 |ddv_scf|^2 =  7.721E-14

      iter #   7 total cpu time :  9228.5 secs   av.it.:  12.5
      thresh= 2.779E-08 alpha_mix =  0.300 |ddv_scf|^2 =  2.398E-15

     End of self-consistent calculation

     Convergence has been achieved 


     Representation #  29 mode #  29

     Self-consistent Calculation

      iter #   1 total cpu time :  9275.4 secs   av.it.:   4.7
      thresh= 1.000E-02 alpha_mix =  0.300 |ddv_scf|^2 =  3.640E-08

      iter #   2 total cpu time :  9304.1 secs   av.it.:  11.5
      thresh= 1.908E-05 alpha_mix =  0.300 |ddv_scf|^2 =  6.313E-09

      iter #   3 total cpu time :  9335.1 secs   av.it.:  12.3
      thresh= 7.946E-06 alpha_mix =  0.300 |ddv_scf|^2 =  2.251E-10

      iter #   4 total cpu time :  9367.6 secs   av.it.:  12.5
      thresh= 1.500E-06 alpha_mix =  0.300 |ddv_scf|^2 =  1.351E-11

      iter #   5 total cpu time :  9398.3 secs   av.it.:  12.5
      thresh= 3.676E-07 alpha_mix =  0.300 |ddv_scf|^2 =  8.295E-13

      iter #   6 total cpu time :  9430.7 secs   av.it.:  12.3
      thresh= 9.108E-08 alpha_mix =  0.300 |ddv_scf|^2 =  1.651E-13

      iter #   7 total cpu time :  9467.4 secs   av.it.:  12.6
      thresh= 4.064E-08 alpha_mix =  0.300 |ddv_scf|^2 =  5.381E-15

     End of self-consistent calculation

     Convergence has been achieved 


     Representation #  30 mode #  30

     Self-consistent Calculation

      iter #   1 total cpu time :  9507.9 secs   av.it.:   4.7
      thresh= 1.000E-02 alpha_mix =  0.300 |ddv_scf|^2 =  3.630E-08

      iter #   2 total cpu time :  9539.4 secs   av.it.:  11.5
      thresh= 1.905E-05 alpha_mix =  0.300 |ddv_scf|^2 =  6.370E-09

      iter #   3 total cpu time :  9568.3 secs   av.it.:  12.3
      thresh= 7.981E-06 alpha_mix =  0.300 |ddv_scf|^2 =  2.212E-10

      iter #   4 total cpu time :  9598.3 secs   av.it.:  12.5
      thresh= 1.487E-06 alpha_mix =  0.300 |ddv_scf|^2 =  1.417E-11

      iter #   5 total cpu time :  9635.0 secs   av.it.:  12.5
      thresh= 3.765E-07 alpha_mix =  0.300 |ddv_scf|^2 =  1.021E-12

      iter #   6 total cpu time :  9666.2 secs   av.it.:  12.4
      thresh= 1.011E-07 alpha_mix =  0.300 |ddv_scf|^2 =  1.469E-13

      iter #   7 total cpu time :  9699.3 secs   av.it.:  12.5
      thresh= 3.833E-08 alpha_mix =  0.300 |ddv_scf|^2 =  5.958E-15

     End of self-consistent calculation

     Convergence has been achieved 


     Representation #  31 mode #  31

     Self-consistent Calculation

      iter #   1 total cpu time :  9745.0 secs   av.it.:   4.4
      thresh= 1.000E-02 alpha_mix =  0.300 |ddv_scf|^2 =  7.913E-09

      iter #   2 total cpu time :  9773.9 secs   av.it.:  11.8
      thresh= 8.896E-06 alpha_mix =  0.300 |ddv_scf|^2 =  2.127E-09

      iter #   3 total cpu time :  9809.9 secs   av.it.:  12.4
      thresh= 4.612E-06 alpha_mix =  0.300 |ddv_scf|^2 =  1.259E-10

      iter #   4 total cpu time :  9840.6 secs   av.it.:  12.3
      thresh= 1.122E-06 alpha_mix =  0.300 |ddv_scf|^2 =  8.413E-12

      iter #   5 total cpu time :  9874.3 secs   av.it.:  12.4
      thresh= 2.900E-07 alpha_mix =  0.300 |ddv_scf|^2 =  7.830E-13

      iter #   6 total cpu time :  9907.4 secs   av.it.:  12.6
      thresh= 8.849E-08 alpha_mix =  0.300 |ddv_scf|^2 =  9.145E-14

      iter #   7 total cpu time :  9942.6 secs   av.it.:  12.4
      thresh= 3.024E-08 alpha_mix =  0.300 |ddv_scf|^2 =  2.505E-15

     End of self-consistent calculation

     Convergence has been achieved 


     Representation #  32 mode #  32

     Self-consistent Calculation

      iter #   1 total cpu time :  9986.0 secs   av.it.:   7.0
      thresh= 1.000E-02 alpha_mix =  0.300 |ddv_scf|^2 =  1.220E-06

      iter #   2 total cpu time : 10014.3 secs   av.it.:  11.3
      thresh= 1.104E-04 alpha_mix =  0.300 |ddv_scf|^2 =  2.255E-07

      iter #   3 total cpu time : 10047.5 secs   av.it.:  12.0
      thresh= 4.748E-05 alpha_mix =  0.300 |ddv_scf|^2 =  2.002E-08

      iter #   4 total cpu time : 10079.7 secs   av.it.:  12.5
      thresh= 1.415E-05 alpha_mix =  0.300 |ddv_scf|^2 =  5.241E-10

      iter #   5 total cpu time : 10111.2 secs   av.it.:  12.2
      thresh= 2.289E-06 alpha_mix =  0.300 |ddv_scf|^2 =  2.661E-11

      iter #   6 total cpu time : 10147.1 secs   av.it.:  11.4
      thresh= 5.159E-07 alpha_mix =  0.300 |ddv_scf|^2 =  6.799E-12

      iter #   7 total cpu time : 10185.3 secs   av.it.:  12.3
      thresh= 2.608E-07 alpha_mix =  0.300 |ddv_scf|^2 =  1.278E-13

      iter #   8 total cpu time : 10218.7 secs   av.it.:  11.3
      thresh= 3.575E-08 alpha_mix =  0.300 |ddv_scf|^2 =  4.578E-14

      iter #   9 total cpu time : 10253.0 secs   av.it.:  12.5
      thresh= 2.140E-08 alpha_mix =  0.300 |ddv_scf|^2 =  1.502E-15

     End of self-consistent calculation

     Convergence has been achieved 


     Representation #  33 mode #  33

     Self-consistent Calculation

      iter #   1 total cpu time : 10297.9 secs   av.it.:   4.5
      thresh= 1.000E-02 alpha_mix =  0.300 |ddv_scf|^2 =  1.525E-08

      iter #   2 total cpu time : 10327.7 secs   av.it.:  11.7
      thresh= 1.235E-05 alpha_mix =  0.300 |ddv_scf|^2 =  3.267E-09

      iter #   3 total cpu time : 10357.6 secs   av.it.:  12.3
      thresh= 5.716E-06 alpha_mix =  0.300 |ddv_scf|^2 =  1.663E-10

      iter #   4 total cpu time : 10388.5 secs   av.it.:  12.5
      thresh= 1.290E-06 alpha_mix =  0.300 |ddv_scf|^2 =  8.978E-12

      iter #   5 total cpu time : 10423.4 secs   av.it.:  12.3
      thresh= 2.996E-07 alpha_mix =  0.300 |ddv_scf|^2 =  7.735E-13

      iter #   6 total cpu time : 10455.9 secs   av.it.:  12.4
      thresh= 8.795E-08 alpha_mix =  0.300 |ddv_scf|^2 =  1.312E-13

      iter #   7 total cpu time : 10486.8 secs   av.it.:  12.4
      thresh= 3.622E-08 alpha_mix =  0.300 |ddv_scf|^2 =  2.789E-15

     End of self-consistent calculation

     Convergence has been achieved 
 
     Number of q in the star =   24
     List of q in the star:
          1  -0.117851130  -0.353553391   0.353553391
          2   0.117851130  -0.353553391  -0.353553391
          3  -0.117851130  -0.353553391  -0.353553391
          4  -0.117851130   0.353553391  -0.353553391
          5  -0.117851130   0.353553391   0.353553391
          6   0.117851130   0.353553391  -0.353553391
          7   0.117851130  -0.353553391   0.353553391
          8   0.117851130   0.353553391   0.353553391
          9  -0.353553391   0.353553391  -0.117851130
         10   0.353553391   0.353553391   0.117851130
         11   0.353553391   0.353553391  -0.117851130
         12   0.353553391  -0.353553391  -0.117851130
         13   0.353553391  -0.117851130  -0.353553391
         14   0.353553391   0.117851130   0.353553391
         15  -0.353553391   0.117851130  -0.353553391
         16   0.353553391   0.117851130  -0.353553391
         17  -0.353553391   0.117851130   0.353553391
         18  -0.353553391  -0.353553391   0.117851130
         19   0.353553391  -0.117851130   0.353553391
         20  -0.353553391  -0.117851130  -0.353553391
         21  -0.353553391   0.353553391   0.117851130
         22  -0.353553391  -0.117851130   0.353553391
         23   0.353553391  -0.353553391   0.117851130
         24  -0.353553391  -0.353553391  -0.117851130

     Diagonalizing the dynamical matrix

     q = (   -0.117851130  -0.353553391   0.353553391 ) 

 **************************************************************************
     freq (    1) =       6.284330 [THz] =     209.622691 [cm-1]
     freq (    2) =       6.395563 [THz] =     213.333027 [cm-1]
     freq (    3) =       8.561784 [THz] =     285.590372 [cm-1]
     freq (    4) =      20.751680 [THz] =     692.201526 [cm-1]
     freq (    5) =      21.062208 [THz] =     702.559622 [cm-1]
     freq (    6) =      27.601917 [THz] =     920.700833 [cm-1]
     freq (    7) =      27.627248 [THz] =     921.545799 [cm-1]
     freq (    8) =      29.244661 [THz] =     975.496883 [cm-1]
     freq (    9) =      30.302038 [THz] =    1010.767187 [cm-1]
     freq (   10) =      30.327619 [THz] =    1011.620480 [cm-1]
     freq (   11) =      31.508500 [THz] =    1051.010434 [cm-1]
     freq (   12) =      35.253537 [THz] =    1175.931402 [cm-1]
     freq (   13) =      36.874445 [THz] =    1229.999075 [cm-1]
     freq (   14) =      39.157546 [THz] =    1306.155139 [cm-1]
     freq (   15) =      39.666389 [THz] =    1323.128311 [cm-1]
     freq (   16) =      40.257311 [THz] =    1342.839347 [cm-1]
     freq (   17) =      40.391590 [THz] =    1347.318433 [cm-1]
     freq (   18) =      40.701533 [THz] =    1357.657011 [cm-1]
     freq (   19) =      41.559591 [THz] =    1386.278724 [cm-1]
     freq (   20) =      42.452701 [THz] =    1416.069672 [cm-1]
     freq (   21) =      42.672546 [THz] =    1423.402929 [cm-1]
     freq (   22) =      43.336438 [THz] =    1445.547983 [cm-1]
     freq (   23) =      44.281238 [THz] =    1477.063107 [cm-1]
     freq (   24) =      46.359561 [THz] =    1546.388511 [cm-1]
     freq (   25) =      47.144217 [THz] =    1572.561814 [cm-1]
     freq (   26) =      48.591273 [THz] =    1620.830387 [cm-1]
     freq (   27) =      50.954931 [THz] =    1699.673535 [cm-1]
     freq (   28) =      51.760274 [THz] =    1726.536890 [cm-1]
     freq (   29) =      52.241613 [THz] =    1742.592652 [cm-1]
     freq (   30) =      52.416453 [THz] =    1748.424676 [cm-1]
     freq (   31) =      53.095874 [THz] =    1771.087733 [cm-1]
     freq (   32) =      57.791615 [THz] =    1927.720780 [cm-1]
     freq (   33) =      61.110163 [THz] =    2038.415626 [cm-1]
 **************************************************************************

     Mode symmetry, C_s (m)     point group:

     freq (   1-   1) =        209.6  [cm-1]   --> A''                
     freq (   2-   2) =        213.3  [cm-1]   --> A'                 
     freq (   3-   3) =        285.6  [cm-1]   --> A'                 
     freq (   4-   4) =        692.2  [cm-1]   --> A'                 
     freq (   5-   5) =        702.6  [cm-1]   --> A''                
     freq (   6-   6) =        920.7  [cm-1]   --> A''                
     freq (   7-   7) =        921.5  [cm-1]   --> A'                 
     freq (   8-   8) =        975.5  [cm-1]   --> A'                 
     freq (   9-   9) =       1010.8  [cm-1]   --> A'                 
     freq (  10-  10) =       1011.6  [cm-1]   --> A''                
     freq (  11-  11) =       1051.0  [cm-1]   --> A'                 
     freq (  12-  12) =       1175.9  [cm-1]   --> A''                
     freq (  13-  13) =       1230.0  [cm-1]   --> A'                 
     freq (  14-  14) =       1306.2  [cm-1]   --> A'                 
     freq (  15-  15) =       1323.1  [cm-1]   --> A''                
     freq (  16-  16) =       1342.8  [cm-1]   --> A''                
     freq (  17-  17) =       1347.3  [cm-1]   --> A'                 
     freq (  18-  18) =       1357.7  [cm-1]   --> A''                
     freq (  19-  19) =       1386.3  [cm-1]   --> A''                
     freq (  20-  20) =       1416.1  [cm-1]   --> A'                 
     freq (  21-  21) =       1423.4  [cm-1]   --> A''                
     freq (  22-  22) =       1445.5  [cm-1]   --> A'                 
     freq (  23-  23) =       1477.1  [cm-1]   --> A'                 
     freq (  24-  24) =       1546.4  [cm-1]   --> A'                 
     freq (  25-  25) =       1572.6  [cm-1]   --> A''                
     freq (  26-  26) =       1620.8  [cm-1]   --> A'                 
     freq (  27-  27) =       1699.7  [cm-1]   --> A'                 
     freq (  28-  28) =       1726.5  [cm-1]   --> A''                
     freq (  29-  29) =       1742.6  [cm-1]   --> A''                
     freq (  30-  30) =       1748.4  [cm-1]   --> A'                 
     freq (  31-  31) =       1771.1  [cm-1]   --> A'                 
     freq (  32-  32) =       1927.7  [cm-1]   --> A'                 
     freq (  33-  33) =       2038.4  [cm-1]   --> A'                 
     Electron-phonon interaction  ...

     Gaussian Broadening:   0.005 Ry, ngauss=   0
     DOS =  5.706849 states/spin/Ry/Unit Cell at Ef= 20.445499 eV
     lambda(    1)=  0.0961   gamma=   20.68 GHz
     lambda(    2)=  0.0697   gamma=   15.53 GHz
     lambda(    3)=  0.0485   gamma=   19.38 GHz
     lambda(    4)=  0.3653   gamma=  857.32 GHz
     lambda(    5)=  0.8400   gamma= 2030.79 GHz
     lambda(    6)=  0.0504   gamma=  209.32 GHz
     lambda(    7)=  0.0658   gamma=  273.71 GHz
     lambda(    8)=  0.0154   gamma=   71.67 GHz
     lambda(    9)=  0.0408   gamma=  204.26 GHz
     lambda(   10)=  0.0377   gamma=  189.11 GHz
     lambda(   11)=  0.2407   gamma= 1302.09 GHz
     lambda(   12)=  0.0712   gamma=  482.08 GHz
     lambda(   13)=  0.0794   gamma=  588.39 GHz
     lambda(   14)=  0.0225   gamma=  188.07 GHz
     lambda(   15)=  0.0651   gamma=  558.01 GHz
     lambda(   16)=  0.0189   gamma=  167.20 GHz
     lambda(   17)=  0.0224   gamma=  199.00 GHz
     lambda(   18)=  0.0363   gamma=  327.36 GHz
     lambda(   19)=  0.0625   gamma=  588.52 GHz
     lambda(   20)=  0.0358   gamma=  351.93 GHz
     lambda(   21)=  0.0646   gamma=  641.23 GHz
     lambda(   22)=  0.0249   gamma=  255.34 GHz
     lambda(   23)=  0.0646   gamma=  690.19 GHz
     lambda(   24)=  0.0748   gamma=  876.23 GHz
     lambda(   25)=  0.0583   gamma=  705.70 GHz
     lambda(   26)=  0.0175   gamma=  224.55 GHz
     lambda(   27)=  0.0144   gamma=  204.37 GHz
     lambda(   28)=  0.0280   gamma=  408.30 GHz
     lambda(   29)=  0.0143   gamma=  212.15 GHz
     lambda(   30)=  0.0091   gamma=  135.55 GHz
     lambda(   31)=  0.0095   gamma=  145.67 GHz
     lambda(   32)=  0.0091   gamma=  164.85 GHz
     lambda(   33)=  0.0137   gamma=  278.68 GHz
     Gaussian Broadening:   0.010 Ry, ngauss=   0
     DOS =  5.493178 states/spin/Ry/Unit Cell at Ef= 20.444376 eV
     lambda(    1)=  0.0791   gamma=   16.39 GHz
     lambda(    2)=  0.0715   gamma=   15.33 GHz
     lambda(    3)=  0.0402   gamma=   15.47 GHz
     lambda(    4)=  0.4216   gamma=  952.33 GHz
     lambda(    5)=  0.5929   gamma= 1379.67 GHz
     lambda(    6)=  0.0524   gamma=  209.37 GHz
     lambda(    7)=  0.0447   gamma=  179.03 GHz
     lambda(    8)=  0.0150   gamma=   67.28 GHz
     lambda(    9)=  0.0345   gamma=  166.15 GHz
     lambda(   10)=  0.0303   gamma=  145.99 GHz
     lambda(   11)=  0.1417   gamma=  738.13 GHz
     lambda(   12)=  0.0588   gamma=  383.18 GHz
     lambda(   13)=  0.0718   gamma=  511.91 GHz
     lambda(   14)=  0.0238   gamma=  191.77 GHz
     lambda(   15)=  0.0452   gamma=  373.34 GHz
     lambda(   16)=  0.0123   gamma=  104.28 GHz
     lambda(   17)=  0.0218   gamma=  186.76 GHz
     lambda(   18)=  0.0261   gamma=  226.97 GHz
     lambda(   19)=  0.0452   gamma=  409.17 GHz
     lambda(   20)=  0.0307   gamma=  289.78 GHz
     lambda(   21)=  0.0465   gamma=  444.41 GHz
     lambda(   22)=  0.0233   gamma=  229.28 GHz
     lambda(   23)=  0.0583   gamma=  599.36 GHz
     lambda(   24)=  0.0551   gamma=  621.30 GHz
     lambda(   25)=  0.0581   gamma=  676.83 GHz
     lambda(   26)=  0.0170   gamma=  210.54 GHz
     lambda(   27)=  0.0187   gamma=  254.79 GHz
     lambda(   28)=  0.0206   gamma=  289.89 GHz
     lambda(   29)=  0.0130   gamma=  186.79 GHz
     lambda(   30)=  0.0080   gamma=  114.94 GHz
     lambda(   31)=  0.0109   gamma=  160.51 GHz
     lambda(   32)=  0.0072   gamma=  125.32 GHz
     lambda(   33)=  0.0117   gamma=  228.43 GHz
     Gaussian Broadening:   0.015 Ry, ngauss=   0
     DOS =  5.643591 states/spin/Ry/Unit Cell at Ef= 20.442941 eV
     lambda(    1)=  0.0781   gamma=   16.62 GHz
     lambda(    2)=  0.0767   gamma=   16.91 GHz
     lambda(    3)=  0.0439   gamma=   17.34 GHz
     lambda(    4)=  0.4510   gamma= 1046.70 GHz
     lambda(    5)=  0.5497   gamma= 1314.27 GHz
     lambda(    6)=  0.0538   gamma=  220.91 GHz
     lambda(    7)=  0.0459   gamma=  188.83 GHz
     lambda(    8)=  0.0167   gamma=   77.02 GHz
     lambda(    9)=  0.0357   gamma=  176.44 GHz
     lambda(   10)=  0.0325   gamma=  161.12 GHz
     lambda(   11)=  0.1259   gamma=  673.71 GHz
     lambda(   12)=  0.0594   gamma=  397.82 GHz
     lambda(   13)=  0.0814   gamma=  596.36 GHz
     lambda(   14)=  0.0263   gamma=  217.01 GHz
     lambda(   15)=  0.0444   gamma=  376.78 GHz
     lambda(   16)=  0.0112   gamma=   98.21 GHz
     lambda(   17)=  0.0245   gamma=  215.84 GHz
     lambda(   18)=  0.0263   gamma=  234.85 GHz
     lambda(   19)=  0.0447   gamma=  416.32 GHz
     lambda(   20)=  0.0336   gamma=  325.96 GHz
     lambda(   21)=  0.0452   gamma=  444.02 GHz
     lambda(   22)=  0.0263   gamma=  266.28 GHz
     lambda(   23)=  0.0615   gamma=  649.86 GHz
     lambda(   24)=  0.0512   gamma=  592.87 GHz
     lambda(   25)=  0.0633   gamma=  758.76 GHz
     lambda(   26)=  0.0179   gamma=  227.57 GHz
     lambda(   27)=  0.0221   gamma=  308.69 GHz
     lambda(   28)=  0.0188   gamma=  271.46 GHz
     lambda(   29)=  0.0136   gamma=  199.49 GHz
     lambda(   30)=  0.0077   gamma=  114.73 GHz
     lambda(   31)=  0.0125   gamma=  189.59 GHz
     lambda(   32)=  0.0074   gamma=  134.04 GHz
     lambda(   33)=  0.0120   gamma=  240.92 GHz
     Gaussian Broadening:   0.020 Ry, ngauss=   0
     DOS =  5.693100 states/spin/Ry/Unit Cell at Ef= 20.442131 eV
     lambda(    1)=  0.0819   gamma=   17.59 GHz
     lambda(    2)=  0.0803   gamma=   17.87 GHz
     lambda(    3)=  0.0457   gamma=   18.22 GHz
     lambda(    4)=  0.4722   gamma= 1105.60 GHz
     lambda(    5)=  0.5610   gamma= 1352.87 GHz
     lambda(    6)=  0.0576   gamma=  238.40 GHz
     lambda(    7)=  0.0479   gamma=  198.84 GHz
     lambda(    8)=  0.0177   gamma=   82.35 GHz
     lambda(    9)=  0.0366   gamma=  182.62 GHz
     lambda(   10)=  0.0344   gamma=  172.22 GHz
     lambda(   11)=  0.1231   gamma=  664.63 GHz
     lambda(   12)=  0.0621   gamma=  419.50 GHz
     lambda(   13)=  0.0869   gamma=  642.60 GHz
     lambda(   14)=  0.0289   gamma=  240.60 GHz
     lambda(   15)=  0.0448   gamma=  383.22 GHz
     lambda(   16)=  0.0114   gamma=  100.46 GHz
     lambda(   17)=  0.0270   gamma=  239.20 GHz
     lambda(   18)=  0.0271   gamma=  243.94 GHz
     lambda(   19)=  0.0462   gamma=  433.58 GHz
     lambda(   20)=  0.0358   gamma=  350.60 GHz
     lambda(   21)=  0.0472   gamma=  467.13 GHz
     lambda(   22)=  0.0281   gamma=  287.36 GHz
     lambda(   23)=  0.0638   gamma=  680.54 GHz
     lambda(   24)=  0.0513   gamma=  599.07 GHz
     lambda(   25)=  0.0673   gamma=  813.78 GHz
     lambda(   26)=  0.0180   gamma=  230.96 GHz
     lambda(   27)=  0.0235   gamma=  332.09 GHz
     lambda(   28)=  0.0187   gamma=  271.94 GHz
     lambda(   29)=  0.0144   gamma=  213.64 GHz
     lambda(   30)=  0.0080   gamma=  119.68 GHz
     lambda(   31)=  0.0139   gamma=  213.60 GHz
     lambda(   32)=  0.0078   gamma=  142.29 GHz
     lambda(   33)=  0.0125   gamma=  253.98 GHz
     Gaussian Broadening:   0.025 Ry, ngauss=   0
     DOS =  5.666404 states/spin/Ry/Unit Cell at Ef= 20.442478 eV
     lambda(    1)=  0.0854   gamma=   18.25 GHz
     lambda(    2)=  0.0834   gamma=   18.45 GHz
     lambda(    3)=  0.0467   gamma=   18.51 GHz
     lambda(    4)=  0.4907   gamma= 1143.48 GHz
     lambda(    5)=  0.5757   gamma= 1382.00 GHz
     lambda(    6)=  0.0610   gamma=  251.65 GHz
     lambda(    7)=  0.0491   gamma=  202.89 GHz
     lambda(    8)=  0.0184   gamma=   85.11 GHz
     lambda(    9)=  0.0373   gamma=  185.45 GHz
     lambda(   10)=  0.0355   gamma=  176.78 GHz
     lambda(   11)=  0.1225   gamma=  657.90 GHz
     lambda(   12)=  0.0643   gamma=  432.38 GHz
     lambda(   13)=  0.0900   gamma=  662.02 GHz
     lambda(   14)=  0.0310   gamma=  257.40 GHz
     lambda(   15)=  0.0456   gamma=  388.25 GHz
     lambda(   16)=  0.0117   gamma=  102.77 GHz
     lambda(   17)=  0.0285   gamma=  251.74 GHz
     lambda(   18)=  0.0280   gamma=  250.68 GHz
     lambda(   19)=  0.0473   gamma=  442.40 GHz
     lambda(   20)=  0.0370   gamma=  361.18 GHz
     lambda(   21)=  0.0491   gamma=  484.20 GHz
     lambda(   22)=  0.0292   gamma=  297.08 GHz
     lambda(   23)=  0.0654   gamma=  694.09 GHz
     lambda(   24)=  0.0516   gamma=  599.67 GHz
     lambda(   25)=  0.0704   gamma=  846.65 GHz
     lambda(   26)=  0.0180   gamma=  230.35 GHz
     lambda(   27)=  0.0242   gamma=  339.68 GHz
     lambda(   28)=  0.0189   gamma=  273.28 GHz
     lambda(   29)=  0.0151   gamma=  223.03 GHz
     lambda(   30)=  0.0084   gamma=  124.43 GHz
     lambda(   31)=  0.0151   gamma=  229.79 GHz
     lambda(   32)=  0.0082   gamma=  148.70 GHz
     lambda(   33)=  0.0129   gamma=  261.34 GHz
     Gaussian Broadening:   0.030 Ry, ngauss=   0
     DOS =  5.611139 states/spin/Ry/Unit Cell at Ef= 20.443739 eV
     lambda(    1)=  0.0876   gamma=   18.55 GHz
     lambda(    2)=  0.0854   gamma=   18.71 GHz
     lambda(    3)=  0.0473   gamma=   18.59 GHz
     lambda(    4)=  0.5023   gamma= 1159.08 GHz
     lambda(    5)=  0.5834   gamma= 1386.82 GHz
     lambda(    6)=  0.0637   gamma=  260.13 GHz
     lambda(    7)=  0.0498   gamma=  203.87 GHz
     lambda(    8)=  0.0189   gamma=   86.62 GHz
     lambda(    9)=  0.0379   gamma=  186.53 GHz
     lambda(   10)=  0.0362   gamma=  178.17 GHz
     lambda(   11)=  0.1222   gamma=  650.18 GHz
     lambda(   12)=  0.0657   gamma=  437.44 GHz
     lambda(   13)=  0.0919   gamma=  669.59 GHz
     lambda(   14)=  0.0327   gamma=  268.47 GHz
     lambda(   15)=  0.0465   gamma=  392.10 GHz
     lambda(   16)=  0.0120   gamma=  104.12 GHz
     lambda(   17)=  0.0294   gamma=  257.34 GHz
     lambda(   18)=  0.0288   gamma=  255.79 GHz
     lambda(   19)=  0.0481   gamma=  445.57 GHz
     lambda(   20)=  0.0377   gamma=  364.08 GHz
     lambda(   21)=  0.0507   gamma=  494.36 GHz
     lambda(   22)=  0.0300   gamma=  301.39 GHz
     lambda(   23)=  0.0665   gamma=  698.56 GHz
     lambda(   24)=  0.0515   gamma=  593.28 GHz
     lambda(   25)=  0.0726   gamma=  864.40 GHz
     lambda(   26)=  0.0181   gamma=  228.77 GHz
     lambda(   27)=  0.0245   gamma=  340.50 GHz
     lambda(   28)=  0.0189   gamma=  271.99 GHz
     lambda(   29)=  0.0156   gamma=  228.42 GHz
     lambda(   30)=  0.0087   gamma=  127.99 GHz
     lambda(   31)=  0.0158   gamma=  239.29 GHz
     lambda(   32)=  0.0086   gamma=  153.85 GHz
     lambda(   33)=  0.0132   gamma=  265.06 GHz
     Gaussian Broadening:   0.035 Ry, ngauss=   0
     DOS =  5.552244 states/spin/Ry/Unit Cell at Ef= 20.445745 eV
     lambda(    1)=  0.0889   gamma=   18.61 GHz
     lambda(    2)=  0.0865   gamma=   18.76 GHz
     lambda(    3)=  0.0478   gamma=   18.58 GHz
     lambda(    4)=  0.5081   gamma= 1160.00 GHz
     lambda(    5)=  0.5851   gamma= 1376.27 GHz
     lambda(    6)=  0.0656   gamma=  264.90 GHz
     lambda(    7)=  0.0503   gamma=  203.72 GHz
     lambda(    8)=  0.0193   gamma=   87.45 GHz
     lambda(    9)=  0.0384   gamma=  186.76 GHz
     lambda(   10)=  0.0365   gamma=  177.94 GHz
     lambda(   11)=  0.1220   gamma=  642.25 GHz
     lambda(   12)=  0.0663   gamma=  437.03 GHz
     lambda(   13)=  0.0932   gamma=  672.08 GHz
     lambda(   14)=  0.0339   gamma=  275.64 GHz
     lambda(   15)=  0.0473   gamma=  394.94 GHz
     lambda(   16)=  0.0122   gamma=  104.85 GHz
     lambda(   17)=  0.0300   gamma=  259.43 GHz
     lambda(   18)=  0.0295   gamma=  259.48 GHz
     lambda(   19)=  0.0487   gamma=  445.92 GHz
     lambda(   20)=  0.0381   gamma=  363.68 GHz
     lambda(   21)=  0.0518   gamma=  499.89 GHz
     lambda(   22)=  0.0304   gamma=  303.10 GHz
     lambda(   23)=  0.0671   gamma=  697.86 GHz
     lambda(   24)=  0.0512   gamma=  583.07 GHz
     lambda(   25)=  0.0740   gamma=  871.52 GHz
     lambda(   26)=  0.0181   gamma=  226.75 GHz
     lambda(   27)=  0.0246   gamma=  338.73 GHz
     lambda(   28)=  0.0189   gamma=  268.61 GHz
     lambda(   29)=  0.0160   gamma=  231.56 GHz
     lambda(   30)=  0.0090   gamma=  130.96 GHz
     lambda(   31)=  0.0164   gamma=  244.79 GHz
     lambda(   32)=  0.0089   gamma=  157.93 GHz
     lambda(   33)=  0.0135   gamma=  266.54 GHz
     Gaussian Broadening:   0.040 Ry, ngauss=   0
     DOS =  5.498034 states/spin/Ry/Unit Cell at Ef= 20.448391 eV
     lambda(    1)=  0.0894   gamma=   18.54 GHz
     lambda(    2)=  0.0870   gamma=   18.68 GHz
     lambda(    3)=  0.0481   gamma=   18.51 GHz
     lambda(    4)=  0.5100   gamma= 1153.07 GHz
     lambda(    5)=  0.5829   gamma= 1357.75 GHz
     lambda(    6)=  0.0668   gamma=  267.04 GHz
     lambda(    7)=  0.0507   gamma=  203.22 GHz
     lambda(    8)=  0.0196   gamma=   87.94 GHz
     lambda(    9)=  0.0387   gamma=  186.66 GHz
     lambda(   10)=  0.0366   gamma=  176.83 GHz
     lambda(   11)=  0.1217   gamma=  634.25 GHz
     lambda(   12)=  0.0664   gamma=  433.26 GHz
     lambda(   13)=  0.0942   gamma=  672.17 GHz
     lambda(   14)=  0.0348   gamma=  280.22 GHz
     lambda(   15)=  0.0481   gamma=  396.99 GHz
     lambda(   16)=  0.0124   gamma=  105.27 GHz
     lambda(   17)=  0.0303   gamma=  259.83 GHz
     lambda(   18)=  0.0301   gamma=  261.98 GHz
     lambda(   19)=  0.0491   gamma=  444.88 GHz
     lambda(   20)=  0.0383   gamma=  362.02 GHz
     lambda(   21)=  0.0525   gamma=  502.38 GHz
     lambda(   22)=  0.0308   gamma=  303.52 GHz
     lambda(   23)=  0.0674   gamma=  693.85 GHz
     lambda(   24)=  0.0506   gamma=  571.19 GHz
     lambda(   25)=  0.0747   gamma=  871.75 GHz
     lambda(   26)=  0.0181   gamma=  224.55 GHz
     lambda(   27)=  0.0247   gamma=  336.09 GHz
     lambda(   28)=  0.0188   gamma=  264.22 GHz
     lambda(   29)=  0.0163   gamma=  233.54 GHz
     lambda(   30)=  0.0093   gamma=  133.73 GHz
     lambda(   31)=  0.0168   gamma=  248.24 GHz
     lambda(   32)=  0.0092   gamma=  161.04 GHz
     lambda(   33)=  0.0136   gamma=  266.58 GHz
     Gaussian Broadening:   0.045 Ry, ngauss=   0
     DOS =  5.450225 states/spin/Ry/Unit Cell at Ef= 20.451582 eV
     lambda(    1)=  0.0895   gamma=   18.39 GHz
     lambda(    2)=  0.0870   gamma=   18.53 GHz
     lambda(    3)=  0.0483   gamma=   18.41 GHz
     lambda(    4)=  0.5096   gamma= 1142.14 GHz
     lambda(    5)=  0.5783   gamma= 1335.32 GHz
     lambda(    6)=  0.0675   gamma=  267.54 GHz
     lambda(    7)=  0.0510   gamma=  202.72 GHz
     lambda(    8)=  0.0198   gamma=   88.28 GHz
     lambda(    9)=  0.0390   gamma=  186.48 GHz
     lambda(   10)=  0.0366   gamma=  175.29 GHz
     lambda(   11)=  0.1212   gamma=  626.23 GHz
     lambda(   12)=  0.0661   gamma=  427.63 GHz
     lambda(   13)=  0.0948   gamma=  671.04 GHz
     lambda(   14)=  0.0355   gamma=  283.15 GHz
     lambda(   15)=  0.0487   gamma=  398.44 GHz
     lambda(   16)=  0.0125   gamma=  105.58 GHz
     lambda(   17)=  0.0306   gamma=  259.43 GHz
     lambda(   18)=  0.0306   gamma=  263.52 GHz
     lambda(   19)=  0.0493   gamma=  443.17 GHz
     lambda(   20)=  0.0384   gamma=  359.86 GHz
     lambda(   21)=  0.0531   gamma=  502.85 GHz
     lambda(   22)=  0.0310   gamma=  303.31 GHz
     lambda(   23)=  0.0674   gamma=  687.72 GHz
     lambda(   24)=  0.0500   gamma=  558.83 GHz
     lambda(   25)=  0.0750   gamma=  867.85 GHz
     lambda(   26)=  0.0181   gamma=  222.37 GHz
     lambda(   27)=  0.0247   gamma=  333.39 GHz
     lambda(   28)=  0.0186   gamma=  259.62 GHz
     lambda(   29)=  0.0165   gamma=  234.90 GHz
     lambda(   30)=  0.0095   gamma=  136.45 GHz
     lambda(   31)=  0.0171   gamma=  250.66 GHz
     lambda(   32)=  0.0094   gamma=  163.28 GHz
     lambda(   33)=  0.0137   gamma=  265.66 GHz
     Gaussian Broadening:   0.050 Ry, ngauss=   0
     DOS =  5.408705 states/spin/Ry/Unit Cell at Ef= 20.455233 eV
     lambda(    1)=  0.0892   gamma=   18.19 GHz
     lambda(    2)=  0.0868   gamma=   18.33 GHz
     lambda(    3)=  0.0483   gamma=   18.29 GHz
     lambda(    4)=  0.5077   gamma= 1129.16 GHz
     lambda(    5)=  0.5723   gamma= 1311.38 GHz
     lambda(    6)=  0.0679   gamma=  267.12 GHz
     lambda(    7)=  0.0513   gamma=  202.38 GHz
     lambda(    8)=  0.0201   gamma=   88.60 GHz
     lambda(    9)=  0.0393   gamma=  186.36 GHz
     lambda(   10)=  0.0365   gamma=  173.63 GHz
     lambda(   11)=  0.1206   gamma=  618.35 GHz
     lambda(   12)=  0.0656   gamma=  421.12 GHz
     lambda(   13)=  0.0953   gamma=  669.35 GHz
     lambda(   14)=  0.0360   gamma=  285.06 GHz
     lambda(   15)=  0.0492   gamma=  399.46 GHz
     lambda(   16)=  0.0126   gamma=  105.86 GHz
     lambda(   17)=  0.0307   gamma=  258.64 GHz
     lambda(   18)=  0.0309   gamma=  264.31 GHz
     lambda(   19)=  0.0495   gamma=  441.17 GHz
     lambda(   20)=  0.0384   gamma=  357.51 GHz
     lambda(   21)=  0.0534   gamma=  502.04 GHz
     lambda(   22)=  0.0312   gamma=  302.87 GHz
     lambda(   23)=  0.0672   gamma=  680.38 GHz
     lambda(   24)=  0.0492   gamma=  546.60 GHz
     lambda(   25)=  0.0751   gamma=  861.70 GHz
     lambda(   26)=  0.0181   gamma=  220.39 GHz
     lambda(   27)=  0.0247   gamma=  331.06 GHz
     lambda(   28)=  0.0184   gamma=  255.25 GHz
     lambda(   29)=  0.0167   gamma=  235.92 GHz
     lambda(   30)=  0.0098   gamma=  139.18 GHz
     lambda(   31)=  0.0173   gamma=  252.51 GHz
     lambda(   32)=  0.0096   gamma=  164.86 GHz
     lambda(   33)=  0.0137   gamma=  264.16 GHz
 
 
     Number of q in the star =   24
     List of q in the star:
          1  -0.117851130  -0.353553391   0.353553391
          2   0.117851130  -0.353553391  -0.353553391
          3  -0.117851130  -0.353553391  -0.353553391
          4  -0.117851130   0.353553391  -0.353553391
          5  -0.117851130   0.353553391   0.353553391
          6   0.117851130   0.353553391  -0.353553391
          7   0.117851130  -0.353553391   0.353553391
          8   0.117851130   0.353553391   0.353553391
          9  -0.353553391   0.353553391  -0.117851130
         10   0.353553391   0.353553391   0.117851130
         11   0.353553391   0.353553391  -0.117851130
         12   0.353553391  -0.353553391  -0.117851130
         13   0.353553391  -0.117851130  -0.353553391
         14   0.353553391   0.117851130   0.353553391
         15  -0.353553391   0.117851130  -0.353553391
         16   0.353553391   0.117851130  -0.353553391
         17  -0.353553391   0.117851130   0.353553391
         18  -0.353553391  -0.353553391   0.117851130
         19   0.353553391  -0.117851130   0.353553391
         20  -0.353553391  -0.117851130  -0.353553391
         21  -0.353553391   0.353553391   0.117851130
         22  -0.353553391  -0.117851130   0.353553391
         23   0.353553391  -0.353553391   0.117851130
         24  -0.353553391  -0.353553391  -0.117851130
 
     init_run     :      0.47s CPU      0.73s WALL (       1 calls)
     electrons    :     37.84s CPU     46.85s WALL (       1 calls)

     Called by init_run:
     wfcinit      :      0.00s CPU      0.05s WALL (       1 calls)
     potinit      :      0.25s CPU      0.43s WALL (       1 calls)
     hinit0       :      0.10s CPU      0.11s WALL (       1 calls)

     Called by electrons:
     c_bands      :     37.83s CPU     46.83s WALL (       1 calls)
     v_of_rho     :      0.02s CPU      0.04s WALL (       2 calls)
     newd         :      0.05s CPU      0.09s WALL (       2 calls)
     PAW_pot      :      0.42s CPU      0.49s WALL (       2 calls)

     Called by c_bands:
     init_us_2    :      9.24s CPU     10.58s WALL (   97812 calls)
     cegterg      :     22.03s CPU     23.20s WALL (     852 calls)

     Called by *egterg:
     cdiaghg      :      6.96s CPU      7.26s WALL (   13379 calls)
     h_psi        :   2268.93s CPU   3048.41s WALL ( 1390399 calls)
     s_psi        :     61.04s CPU     66.38s WALL ( 2839809 calls)
     g_psi        :      0.07s CPU      0.07s WALL (   12911 calls)

     Called by h_psi:
     h_psi:calbec :     40.89s CPU     44.37s WALL ( 1390399 calls)
     vloc_psi     :   2185.65s CPU   2958.04s WALL ( 1390399 calls)
     add_vuspsi   :     31.49s CPU     34.27s WALL ( 1390399 calls)

     General routines
     calbec       :    181.51s CPU    189.96s WALL ( 2954937 calls)
     fft          :      2.40s CPU      3.08s WALL (    6499 calls)
     ffts         :    166.69s CPU    259.88s WALL (    9505 calls)
     fftw         :   3250.35s CPU   4688.33s WALL (23442926 calls)
     interpolate  :      1.26s CPU      1.82s WALL (     661 calls)
     davcio       :     32.60s CPU   1604.10s WALL (  410845 calls)
 
     Parallel routines
 
     PHONON       :      1h56m CPU      2h55m WALL

     INITIALIZATION: 
     phq_setup    :      0.03s CPU      0.07s WALL (       1 calls)
     phq_init     :     34.00s CPU     40.28s WALL (       1 calls)
 
     phq_init     :     34.00s CPU     40.28s WALL (       1 calls)
     set_drhoc    :      0.00s CPU      0.00s WALL (       3 calls)
     init_vloc    :      0.01s CPU      0.05s WALL (       2 calls)
     init_us_1    :      0.16s CPU      0.24s WALL (       2 calls)
     init_us_2    :      9.24s CPU     10.58s WALL (   97812 calls)
     newd         :      0.05s CPU      0.09s WALL (       2 calls)
     dvanqq       :      1.80s CPU      1.81s WALL (       1 calls)
     drho         :     21.50s CPU     25.96s WALL (       1 calls)
     drhous       :     11.55s CPU     13.92s WALL (       1 calls)
     nldyntot     :      0.86s CPU      0.86s WALL (       1 calls)
 
     DYNAMICAL MATRIX:
     dynmat0      :      5.54s CPU      6.49s WALL (       1 calls)
     dynmat_us    :      5.48s CPU      6.41s WALL (       1 calls)
     addusdynmat  :      0.00s CPU      0.00s WALL (       1 calls)
     d2ionq       :      0.04s CPU      0.04s WALL (       1 calls)
     dynmatcc     :      0.01s CPU      0.01s WALL (       1 calls)
     phqscf       :   6884.45s CPU  10407.26s WALL (       1 calls)
     dynmatrix    :      0.12s CPU      0.24s WALL (       1 calls)
 
     phqscf       :   6884.45s CPU  10407.26s WALL (       1 calls)
     solve_linter :   6785.07s CPU  10270.03s WALL (      33 calls)
     sth_kernel   :   5961.85s CPU   8741.44s WALL (     313 calls)
     h_prec       :   1810.06s CPU   1839.21s WALL (   73242 calls)
     apply_dpot_b :    786.61s CPU   1222.21s WALL (   73242 calls)
     ortho        :    109.32s CPU    111.86s WALL (   73242 calls)
     cgsolve      :   2435.01s CPU   3229.56s WALL (   73242 calls)
     incdrhoscf   :    510.94s CPU    762.01s WALL (   73242 calls)
                                        0.00s GPU  (   73242 calls)
     addusddens   :     34.15s CPU     41.53s WALL (     346 calls)
     vpsifft      :    149.77s CPU    237.22s WALL (    7722 calls)
     dv_of_drho   :      2.84s CPU      3.22s WALL (     313 calls)
     mix_pot      :     54.35s CPU    185.76s WALL (     313 calls)
     drhodv       :     99.31s CPU    114.97s WALL (      33 calls)
     psymdvscf    :     37.59s CPU     38.11s WALL (     313 calls)
     newdq        :     27.96s CPU     28.23s WALL (     313 calls)
     adddvscf     :      9.16s CPU      9.96s WALL (   73242 calls)
     com_dvloc    :    165.91s CPU    258.63s WALL (    8844 calls)
                                        0.00s GPU  (    8844 calls)
     addcore      :      0.48s CPU      0.58s WALL (    1435 calls)
                                        0.00s GPU  (    1435 calls)
     drhodvus     :     23.60s CPU     52.77s WALL (      33 calls)
 
     dvqpsi_us    :    201.11s CPU    295.59s WALL (    7722 calls)
                                        0.00s GPU  (    7722 calls)
     dvqpsi_us_on :     24.06s CPU     24.40s WALL (    7722 calls)
 
     add_vuspsi   :     31.49s CPU     34.27s WALL ( 1390399 calls)
     addusdbec    :      4.64s CPU      4.98s WALL (   80964 calls)
 
     drhodvus     :     23.60s CPU     52.77s WALL (      33 calls)
 
      Electron-phonon coupling
     elphel       :    181.68s CPU    332.40s WALL (      33 calls)
     elphsum      :     27.80s CPU     28.80s WALL (       1 calls)
 
      General routines
     calbec       :    181.51s CPU    189.96s WALL ( 2954937 calls)
     fft          :      2.40s CPU      3.08s WALL (    6499 calls)
     ffts         :    166.69s CPU    259.88s WALL (    9505 calls)
     fftw         :   3250.35s CPU   4688.33s WALL (23442926 calls)
     davcio       :     32.60s CPU   1604.10s WALL (  410845 calls)
     write_rec    :      0.50s CPU    218.76s WALL (     346 calls)
 
      Additional routines
     ch_psi       :   2409.41s CPU   3201.34s WALL ( 1376168 calls)
     last         :    108.43s CPU    117.82s WALL ( 1376168 calls)
     Hesh         :      3.73s CPU      4.15s WALL ( 1376168 calls)
     ch_psi_all_k :     98.36s CPU    106.88s WALL ( 1376168 calls)
                                        0.00s GPU  ( 1376168 calls)
     ch_psi_calbe :     32.77s CPU     35.42s WALL ( 1376168 calls)
                                        0.00s GPU  ( 1376168 calls)
     h_psi_bgrp   :   2271.75s CPU   3051.43s WALL ( 1390399 calls)
     h_psi        :   2268.93s CPU   3048.41s WALL ( 1390399 calls)
     h_psi:pot    :   2264.13s CPU   3043.10s WALL ( 1390399 calls)
     h_psi:calbec :     40.89s CPU     44.37s WALL ( 1390399 calls)
     s_psi_bgrp   :     70.07s CPU     76.06s WALL ( 2839809 calls)
     s_psi        :     61.04s CPU     66.38s WALL ( 2839809 calls)
 
 
     PHONON       :      1h56m CPU      2h55m WALL

 
   This run was terminated on:  16:55:47  22Oct2025            

=------------------------------------------------------------------------------=
   JOB DONE.
=------------------------------------------------------------------------------=
