
     Program PHONON v.7.4.1 starts on 22Oct2025 at 12:53:27 

     This program is part of the open-source Quantum ESPRESSO suite
     for quantum simulation of materials; please cite
         "P. Giannozzi et al., J. Phys.:Condens. Matter 21 395502 (2009);
         "P. Giannozzi et al., J. Phys.:Condens. Matter 29 465901 (2017);
         "P. Giannozzi et al., J. Chem. Phys. 152 154105 (2020);
          URL http://www.quantum-espresso.org", 
     in publications or presentations arising from this work. More details at
     http://www.quantum-espresso.org/quote

     Parallel version (MPI), running on    48 processors

     MPI processes distributed on     1 nodes
     180821 MiB available memory on the printing compute node when the environment starts
 
     Waiting for input...
     Reading input from standard input

     Reading xml data from directory:

     ./tmp/La1H10.save/
 
     K-points division:     npool     =       4
     R & G space division:  proc/nbgrp/npool/nimage =      12
     Subspace diagonalization in iterative solution of the eigenvalue problem:
     a serial algorithm will be used

     file La.pbe-spfn-kjpaw_psl.1.0.0.UPF: wavefunction(s)  5S 5D 4F renormalized
     file H.pbe-kjpaw_psl.1.0.0.UPF: wavefunction(s)  1S renormalized

     IMPORTANT: XC functional enforced from input :
     Exchange-correlation= PBE
                           (   1   4   3   4   0   0   0)
     Any further DFT definition will be discarded
     Please, verify this is what you really want

 
     Parallelization info
     --------------------
     sticks:   dense  smooth     PW     G-vecs:    dense   smooth      PW
     Min         231      77     23                 8029     1540     259
     Max         232      78     24                 8031     1543     261
     Sum        2773     925    283                96353    18499    3119
 
     Using Slab Decomposition
 
     Reading collected, re-writing distributed wavefunctions in ./tmp/


     Dynamical matrices for ( 6, 6, 6)  uniform grid of q-points
     (  16 q-points):
       N         xq(1)         xq(2)         xq(3) 
       1   0.000000000   0.000000000   0.000000000
       2   0.117851130   0.117851130  -0.117851130
       3   0.235702260   0.235702260  -0.235702260
       4  -0.353553391  -0.353553391   0.353553391
       5   0.235702260   0.000000000   0.000000000
       6   0.353553391   0.117851130  -0.117851130
       7  -0.235702260  -0.471404521   0.471404521
       8  -0.117851130  -0.353553391   0.353553391
       9   0.000000000  -0.235702260   0.235702260
      10   0.471404521   0.000000000   0.000000000
      11  -0.117851130  -0.589255651   0.589255651
      12  -0.000000000  -0.471404521   0.471404521
      13  -0.707106781   0.000000000   0.000000000
      14  -0.235702260  -0.471404521   0.707106781
      15  -0.117851130  -0.353553391   0.589255651
      16  -0.707106781   0.235702260   0.000000000

     Number and degeneracy of irreps per q-point
       N         xq(1)         xq(2)         xq(3)   N irreps
       1   0.000000000   0.000000000   0.000000000      13
        1   2   3   3   3   3   1   2   3   3   3   3   3
       2   0.117851130   0.117851130  -0.117851130      22
        1   1   1   1   1   1   1   1   1   1   1   2   2   2   2   2   2   2
   2   2   2   2
       3   0.235702260   0.235702260  -0.235702260      22
        1   1   1   1   1   1   1   1   1   1   1   2   2   2   2   2   2   2
   2   2   2   2
       4  -0.353553391  -0.353553391   0.353553391      22
        1   1   1   1   1   2   2   2   2   2   1   1   1   1   1   1   2   2
   2   2   2   2
       5   0.235702260   0.000000000   0.000000000      24
        1   1   1   1   1   1   1   1   1   1   1   1   1   1   1   2   2   2
   2   2   2   2   2   2
       6   0.353553391   0.117851130  -0.117851130      33
     No degeneracy
       7  -0.235702260  -0.471404521   0.471404521      33
     No degeneracy
       8  -0.117851130  -0.353553391   0.353553391      33
     No degeneracy
       9   0.000000000  -0.235702260   0.235702260      33
     No degeneracy
      10   0.471404521   0.000000000   0.000000000      24
        1   1   1   1   1   1   1   1   1   1   1   1   1   1   1   2   2   2
   2   2   2   2   2   2
      11  -0.117851130  -0.589255651   0.589255651      33
     No degeneracy
      12  -0.000000000  -0.471404521   0.471404521      33
     No degeneracy
      13  -0.707106781   0.000000000   0.000000000      24
        1   1   1   1   1   1   1   2   2   2   2   1   1   1   1   1   1   1
   1   2   2   2   2   2
      14  -0.235702260  -0.471404521   0.707106781      33
     No degeneracy
      15  -0.117851130  -0.353553391   0.589255651      33
     No degeneracy
Eigenvectors exchange needed    7   16
      16  -0.707106781   0.235702260   0.000000000      32
        1   1   1   1   1   1   2   1   1   1   1   1   1   1   1   1   1   1
   1   1   1   1   1   1   1   1   1   1   1   1   1   1

     Saving dvscf to file. Distribute only q points, not irreducible representations.

     Calculation of q =    0.2357023   0.2357023  -0.2357023
 
     Parallelization info
     --------------------
     sticks:   dense  smooth     PW     G-vecs:    dense   smooth      PW
     Min         231      77     25                 8029     1540     289
     Max         232      78     26                 8031     1543     292
     Sum        2773     925    301                96353    18499    3479
 
     Using Slab Decomposition
 

     Title: 
     Electron-phonon coefficients for La1H10                                    


     bravais-lattice index     =            0
     lattice parameter (alat)  =       6.4716  a.u.
     unit-cell volume          =     191.6541 (a.u.)^3
     number of atoms/cell      =           11
     number of atomic types    =            2
     number of electrons       =        21.00
     number of Kohn-Sham states=           15
     kinetic-energy cutoff     =      80.0000  Ry
     charge density cutoff     =     960.0000  Ry
     Exchange-correlation= PBE
                           (   1   4   3   4   0   0   0)

     celldm(1)=   6.471590  celldm(2)=   0.000000  celldm(3)=   0.000000
     celldm(4)=   0.000000  celldm(5)=   0.000000  celldm(6)=   0.000000

     crystal axes: (cart. coord. in units of alat)
               a(1) = (   0.000000   0.707107   0.707107 )  
               a(2) = (   0.707107   0.000000   0.707107 )  
               a(3) = (   0.707107   0.707107   0.000000 )  

     reciprocal axes: (cart. coord. in units 2 pi/alat)
               b(1) = ( -0.707107  0.707107  0.707107 )  
               b(2) = (  0.707107 -0.707107  0.707107 )  
               b(3) = (  0.707107  0.707107 -0.707107 )  


     PseudoPot. # 1 for La read from file:
     /work/home/mayuan/workplace/1.typical_hydride/003.MH10/1.LaH10/250/Tc-666-paw/pp/La.pbe-spfn-kjpaw_psl.1.0.0.UPF
     MD5 check sum: ccc10218a00d76b68822f6b8f5772390
     Pseudo is Projector augmented-wave + core cor, Zval = 11.0
     Generated using 'atomic' code by A. Dal Corso  v.7.1
     Shape of augmentation charge: PSQ
     Using radial grid of 1253 points,  8 beta functions with: 
                l(1) =   0
                l(2) =   0
                l(3) =   1
                l(4) =   1
                l(5) =   2
                l(6) =   2
                l(7) =   3
                l(8) =   3
     Q(r) pseudized with 0 coefficients 


     PseudoPot. # 2 for H  read from file:
     /work/home/mayuan/workplace/1.typical_hydride/003.MH10/1.LaH10/250/Tc-666-paw/pp/H.pbe-kjpaw_psl.1.0.0.UPF
     MD5 check sum: 3bb27c602ede137025941d095c9090b7
     Pseudo is Projector augmented-wave, Zval =  1.0
     Generated using 'atomic' code by A. Dal Corso  v.7.1
     Shape of augmentation charge: PSQ
     Using radial grid of  929 points,  2 beta functions with: 
                l(1) =   0
                l(2) =   0
     Q(r) pseudized with 0 coefficients 


     atomic species   valence    mass     pseudopotential
     La               11.00   138.90547     La( 1.00)
     H                 1.00     1.00794     H ( 1.00)

     48 Sym. Ops., with inversion, found



   Cartesian axes

     site n.     atom                  positions (alat units)
         1        La     tau(   1) = (   0.0000000   0.0000000   0.0000000  )
         2        H      tau(   2) = (   0.3535534   0.3535534   0.3535534  )
         3        H      tau(   3) = (   1.0606602   1.0606602   1.0606602  )
         4        H      tau(   4) = (   0.8776866   0.8776866   0.8776866  )
         5        H      tau(   5) = (   0.5365270   0.5365270   0.5365270  )
         6        H      tau(   6) = (   0.5365270   0.5365270   0.8776866  )
         7        H      tau(   7) = (   0.8776866   0.8776866   0.5365270  )
         8        H      tau(   8) = (   0.5365270   0.8776866   0.5365270  )
         9        H      tau(   9) = (   0.8776866   0.5365270   0.8776866  )
        10        H      tau(  10) = (   0.8776866   0.5365270   0.5365270  )
        11        H      tau(  11) = (   0.5365270   0.8776866   0.8776866  )

     number of k points=   728  Gaussian smearing, width (Ry)=  0.0200

     Number of k-points >= 100: set verbosity='high' to print them.

     Dense  grid:    96353 G-vectors     FFT dimensions: (  64,  64,  64)

     Smooth grid:    18499 G-vectors     FFT dimensions: (  40,  40,  40)

     Estimated max dynamical RAM per process >      32.64 MB

     Estimated total dynamical RAM >       1.53 GB

     The potential is recalculated from file :
     ./tmp/_ph0/La1H10.q_3/La1H10.save/charge-density

     Starting wfcs are   30 atomic wfcs
     Checking if some PAW data can be deallocated... 

     Band Structure Calculation
     Davidson diagonalization with overlap

     ethr =  4.76E-11,  avg # of iterations = 29.6

     total cpu time spent up to now is       19.4 secs

     End of band structure calculation

     Number of k-points >= 100: set verbosity='high' to print the bands.

     the Fermi energy is    20.4236 ev

     Writing config to output data dir ./tmp/_ph0/La1H10.q_3/La1H10.save/ :
     XML data file

     Electron-phonon coefficients for La1H10                                    

     bravais-lattice index     =            0
     lattice parameter (alat)  =       6.4716  a.u.
     unit-cell volume          =     191.6541 (a.u.)^3
     number of atoms/cell      =           11
     number of atomic types    =            2
     kinetic-energy cut-off    =      80.0000  Ry
     charge density cut-off    =     960.0000  Ry
     convergence threshold     =      1.0E-14
     beta                      =       0.3000
     number of iterations used =            4
     Exchange-correlation= PBE
                           (   1   4   3   4   0   0   0)


     celldm(1)=    6.47159  celldm(2)=    0.00000  celldm(3)=    0.00000
     celldm(4)=    0.00000  celldm(5)=    0.00000  celldm(6)=    0.00000

     crystal axes: (cart. coord. in units of alat)
               a(1) = (  0.0000  0.7071  0.7071 )  
               a(2) = (  0.7071  0.0000  0.7071 )  
               a(3) = (  0.7071  0.7071  0.0000 )  

     reciprocal axes: (cart. coord. in units 2 pi/alat)
               b(1) = ( -0.7071  0.7071  0.7071 )  
               b(2) = (  0.7071 -0.7071  0.7071 )  
               b(3) = (  0.7071  0.7071 -0.7071 )  


     Atoms inside the unit cell: 

     Cartesian axes

     site n.  atom      mass           positions (alat units)
        1  La    138.9055   tau(    1) = (    0.00000    0.00000    0.00000  )
        2  H       1.0079   tau(    2) = (    0.35355    0.35355    0.35355  )
        3  H       1.0079   tau(    3) = (    1.06066    1.06066    1.06066  )
        4  H       1.0079   tau(    4) = (    0.87769    0.87769    0.87769  )
        5  H       1.0079   tau(    5) = (    0.53653    0.53653    0.53653  )
        6  H       1.0079   tau(    6) = (    0.53653    0.53653    0.87769  )
        7  H       1.0079   tau(    7) = (    0.87769    0.87769    0.53653  )
        8  H       1.0079   tau(    8) = (    0.53653    0.87769    0.53653  )
        9  H       1.0079   tau(    9) = (    0.87769    0.53653    0.87769  )
       10  H       1.0079   tau(   10) = (    0.87769    0.53653    0.53653  )
       11  H       1.0079   tau(   11) = (    0.53653    0.87769    0.87769  )

     Computing dynamical matrix for 
                    q = (   0.2357023   0.2357023  -0.2357023 )
 
      6 Sym.Ops. (no q -> -q+G )


     G cutoff = 1018.4355  (   8029 G-vectors)     FFT grid: ( 64, 64, 64)
     G cutoff =  339.4785  (   1542 G-vectors)  smooth grid: ( 40, 40, 40)

     number of k points=   728  Gaussian smearing, width (Ry)=  0.0200

     PseudoPot. # 1 for La read from file:
     /work/home/mayuan/workplace/1.typical_hydride/003.MH10/1.LaH10/250/Tc-666-paw/pp/La.pbe-spfn-kjpaw_psl.1.0.0.UPF
     MD5 check sum: ccc10218a00d76b68822f6b8f5772390
     Pseudo is Projector augmented-wave + core cor, Zval = 11.0
     Generated using 'atomic' code by A. Dal Corso  v.7.1
     Shape of augmentation charge: PSQ
     Using radial grid of 1253 points,  8 beta functions with: 
                l(1) =   0
                l(2) =   0
                l(3) =   1
                l(4) =   1
                l(5) =   2
                l(6) =   2
                l(7) =   3
                l(8) =   3
     Q(r) pseudized with 0 coefficients 


     PseudoPot. # 2 for H  read from file:
     /work/home/mayuan/workplace/1.typical_hydride/003.MH10/1.LaH10/250/Tc-666-paw/pp/H.pbe-kjpaw_psl.1.0.0.UPF
     MD5 check sum: 3bb27c602ede137025941d095c9090b7
     Pseudo is Projector augmented-wave, Zval =  1.0
     Generated using 'atomic' code by A. Dal Corso  v.7.1
     Shape of augmentation charge: PSQ
     Using radial grid of  929 points,  2 beta functions with: 
                l(1) =   0
                l(2) =   0
     Q(r) pseudized with 0 coefficients 


     Mode symmetry, C_3v (3m)   point group:


     Atomic displacements:
     There are   22 irreducible representations

     Representation     1      1 modes -  To be done

     Representation     2      1 modes -  To be done

     Representation     3      1 modes -  To be done

     Representation     4      1 modes -  To be done

     Representation     5      1 modes -  To be done

     Representation     6      1 modes -  To be done

     Representation     7      1 modes -  To be done

     Representation     8      1 modes -  To be done

     Representation     9      1 modes -  To be done

     Representation    10      1 modes -  To be done

     Representation    11      1 modes -  To be done

     Representation    12      2 modes -  To be done

     Representation    13      2 modes -  To be done

     Representation    14      2 modes -  To be done

     Representation    15      2 modes -  To be done

     Representation    16      2 modes -  To be done

     Representation    17      2 modes -  To be done

     Representation    18      2 modes -  To be done

     Representation    19      2 modes -  To be done

     Representation    20      2 modes -  To be done

     Representation    21      2 modes -  To be done

     Representation    22      2 modes -  To be done


     Message from routine init_vloc:
     Interpolation table for Vloc re-allocated

     Alpha used in Ewald sum =   2.8000
     PHONON       :     35.57s CPU     49.01s WALL



     Representation #   1 mode #   1

     Self-consistent Calculation

      iter #   1 total cpu time :    62.0 secs   av.it.:   5.7
      thresh= 1.000E-02 alpha_mix =  0.300 |ddv_scf|^2 =  2.312E-05

      iter #   2 total cpu time :    75.9 secs   av.it.:  10.6
      thresh= 4.808E-04 alpha_mix =  0.300 |ddv_scf|^2 =  1.200E-04

      iter #   3 total cpu time :    92.7 secs   av.it.:   8.9
      thresh= 1.095E-03 alpha_mix =  0.300 |ddv_scf|^2 =  7.124E-09

      iter #   4 total cpu time :   111.4 secs   av.it.:  11.4
      thresh= 8.440E-06 alpha_mix =  0.300 |ddv_scf|^2 =  1.109E-09

      iter #   5 total cpu time :   125.8 secs   av.it.:  12.2
      thresh= 3.330E-06 alpha_mix =  0.300 |ddv_scf|^2 =  6.788E-11

      iter #   6 total cpu time :   139.1 secs   av.it.:  12.2
      thresh= 8.239E-07 alpha_mix =  0.300 |ddv_scf|^2 =  2.088E-11

      iter #   7 total cpu time :   154.2 secs   av.it.:  10.9
      thresh= 4.569E-07 alpha_mix =  0.300 |ddv_scf|^2 =  3.699E-11

      iter #   8 total cpu time :   170.3 secs   av.it.:  10.7
      thresh= 6.082E-07 alpha_mix =  0.300 |ddv_scf|^2 =  1.161E-12

      iter #   9 total cpu time :   187.6 secs   av.it.:  12.4
      thresh= 1.077E-07 alpha_mix =  0.300 |ddv_scf|^2 =  3.666E-13

      iter #  10 total cpu time :   202.3 secs   av.it.:  11.0
      thresh= 6.054E-08 alpha_mix =  0.300 |ddv_scf|^2 =  6.141E-13

      iter #  11 total cpu time :   218.2 secs   av.it.:  10.9
      thresh= 7.836E-08 alpha_mix =  0.300 |ddv_scf|^2 =  1.283E-14

      iter #  12 total cpu time :   233.5 secs   av.it.:  12.1
      thresh= 1.133E-08 alpha_mix =  0.300 |ddv_scf|^2 =  1.762E-15

     End of self-consistent calculation

     Convergence has been achieved 


     Representation #   2 mode #   2

     Self-consistent Calculation

      iter #   1 total cpu time :   253.8 secs   av.it.:   5.1
      thresh= 1.000E-02 alpha_mix =  0.300 |ddv_scf|^2 =  8.302E-06

      iter #   2 total cpu time :   266.2 secs   av.it.:  10.6
      thresh= 2.881E-04 alpha_mix =  0.300 |ddv_scf|^2 =  4.305E-05

      iter #   3 total cpu time :   278.7 secs   av.it.:   8.9
      thresh= 6.561E-04 alpha_mix =  0.300 |ddv_scf|^2 =  3.730E-09

      iter #   4 total cpu time :   291.3 secs   av.it.:  11.5
      thresh= 6.107E-06 alpha_mix =  0.300 |ddv_scf|^2 =  7.460E-10

      iter #   5 total cpu time :   307.0 secs   av.it.:  12.2
      thresh= 2.731E-06 alpha_mix =  0.300 |ddv_scf|^2 =  5.197E-11

      iter #   6 total cpu time :   320.6 secs   av.it.:  11.9
      thresh= 7.209E-07 alpha_mix =  0.300 |ddv_scf|^2 =  1.308E-11

      iter #   7 total cpu time :   332.8 secs   av.it.:  11.2
      thresh= 3.616E-07 alpha_mix =  0.300 |ddv_scf|^2 =  3.101E-11

      iter #   8 total cpu time :   346.7 secs   av.it.:  10.2
      thresh= 5.568E-07 alpha_mix =  0.300 |ddv_scf|^2 =  8.068E-13

      iter #   9 total cpu time :   359.4 secs   av.it.:  12.1
      thresh= 8.982E-08 alpha_mix =  0.300 |ddv_scf|^2 =  7.825E-13

      iter #  10 total cpu time :   374.3 secs   av.it.:  10.3
      thresh= 8.846E-08 alpha_mix =  0.300 |ddv_scf|^2 =  1.084E-13

      iter #  11 total cpu time :   387.6 secs   av.it.:  11.4
      thresh= 3.293E-08 alpha_mix =  0.300 |ddv_scf|^2 =  1.085E-14

      iter #  12 total cpu time :   401.3 secs   av.it.:  12.1
      thresh= 1.042E-08 alpha_mix =  0.300 |ddv_scf|^2 =  1.813E-15

     End of self-consistent calculation

     Convergence has been achieved 


     Representation #   3 mode #   3

     Self-consistent Calculation

      iter #   1 total cpu time :   422.4 secs   av.it.:   8.1
      thresh= 1.000E-02 alpha_mix =  0.300 |ddv_scf|^2 =  8.629E-04

      iter #   2 total cpu time :   434.7 secs   av.it.:  10.5
      thresh= 2.937E-03 alpha_mix =  0.300 |ddv_scf|^2 =  4.498E-03

      iter #   3 total cpu time :   448.2 secs   av.it.:   8.9
      thresh= 6.707E-03 alpha_mix =  0.300 |ddv_scf|^2 =  1.868E-07

      iter #   4 total cpu time :   460.9 secs   av.it.:  11.1
      thresh= 4.321E-05 alpha_mix =  0.300 |ddv_scf|^2 =  3.498E-08

      iter #   5 total cpu time :   474.0 secs   av.it.:  12.2
      thresh= 1.870E-05 alpha_mix =  0.300 |ddv_scf|^2 =  3.947E-09

      iter #   6 total cpu time :   487.9 secs   av.it.:  12.1
      thresh= 6.282E-06 alpha_mix =  0.300 |ddv_scf|^2 =  4.164E-10

      iter #   7 total cpu time :   501.8 secs   av.it.:  12.0
      thresh= 2.041E-06 alpha_mix =  0.300 |ddv_scf|^2 =  1.920E-11

      iter #   8 total cpu time :   515.5 secs   av.it.:  11.7
      thresh= 4.382E-07 alpha_mix =  0.300 |ddv_scf|^2 =  4.573E-12

      iter #   9 total cpu time :   528.9 secs   av.it.:  10.8
      thresh= 2.139E-07 alpha_mix =  0.300 |ddv_scf|^2 =  5.622E-12

      iter #  10 total cpu time :   543.1 secs   av.it.:  10.7
      thresh= 2.371E-07 alpha_mix =  0.300 |ddv_scf|^2 =  2.529E-13

      iter #  11 total cpu time :   557.1 secs   av.it.:  12.0
      thresh= 5.029E-08 alpha_mix =  0.300 |ddv_scf|^2 =  1.575E-14

      iter #  12 total cpu time :   570.6 secs   av.it.:  11.3
      thresh= 1.255E-08 alpha_mix =  0.300 |ddv_scf|^2 =  3.786E-15

     End of self-consistent calculation

     Convergence has been achieved 


     Representation #   4 mode #   4

     Self-consistent Calculation

      iter #   1 total cpu time :   594.0 secs   av.it.:   5.1
      thresh= 1.000E-02 alpha_mix =  0.300 |ddv_scf|^2 =  8.302E-06

      iter #   2 total cpu time :   609.2 secs   av.it.:  10.6
      thresh= 2.881E-04 alpha_mix =  0.300 |ddv_scf|^2 =  4.305E-05

      iter #   3 total cpu time :   622.4 secs   av.it.:   8.9
      thresh= 6.561E-04 alpha_mix =  0.300 |ddv_scf|^2 =  3.730E-09

      iter #   4 total cpu time :   635.5 secs   av.it.:  11.5
      thresh= 6.107E-06 alpha_mix =  0.300 |ddv_scf|^2 =  7.460E-10

      iter #   5 total cpu time :   648.0 secs   av.it.:  12.2
      thresh= 2.731E-06 alpha_mix =  0.300 |ddv_scf|^2 =  5.197E-11

      iter #   6 total cpu time :   662.6 secs   av.it.:  11.9
      thresh= 7.209E-07 alpha_mix =  0.300 |ddv_scf|^2 =  1.308E-11

      iter #   7 total cpu time :   675.4 secs   av.it.:  11.2
      thresh= 3.616E-07 alpha_mix =  0.300 |ddv_scf|^2 =  3.101E-11

      iter #   8 total cpu time :   689.4 secs   av.it.:  10.2
      thresh= 5.568E-07 alpha_mix =  0.300 |ddv_scf|^2 =  8.068E-13

      iter #   9 total cpu time :   704.8 secs   av.it.:  12.1
      thresh= 8.982E-08 alpha_mix =  0.300 |ddv_scf|^2 =  7.825E-13

      iter #  10 total cpu time :   720.2 secs   av.it.:  10.3
      thresh= 8.846E-08 alpha_mix =  0.300 |ddv_scf|^2 =  1.084E-13

      iter #  11 total cpu time :   735.1 secs   av.it.:  11.4
      thresh= 3.293E-08 alpha_mix =  0.300 |ddv_scf|^2 =  1.085E-14

      iter #  12 total cpu time :   749.6 secs   av.it.:  12.1
      thresh= 1.042E-08 alpha_mix =  0.300 |ddv_scf|^2 =  1.813E-15

     End of self-consistent calculation

     Convergence has been achieved 


     Representation #   5 mode #   5

     Self-consistent Calculation

      iter #   1 total cpu time :   770.5 secs   av.it.:   5.5
      thresh= 1.000E-02 alpha_mix =  0.300 |ddv_scf|^2 =  1.451E-05

      iter #   2 total cpu time :   782.9 secs   av.it.:  10.6
      thresh= 3.809E-04 alpha_mix =  0.300 |ddv_scf|^2 =  7.505E-05

      iter #   3 total cpu time :   797.3 secs   av.it.:   8.9
      thresh= 8.663E-04 alpha_mix =  0.300 |ddv_scf|^2 =  8.950E-09

      iter #   4 total cpu time :   811.3 secs   av.it.:  11.5
      thresh= 9.460E-06 alpha_mix =  0.300 |ddv_scf|^2 =  1.564E-09

      iter #   5 total cpu time :   825.7 secs   av.it.:  12.2
      thresh= 3.955E-06 alpha_mix =  0.300 |ddv_scf|^2 =  7.143E-11

      iter #   6 total cpu time :   847.0 secs   av.it.:  12.0
      thresh= 8.452E-07 alpha_mix =  0.300 |ddv_scf|^2 =  2.265E-11

      iter #   7 total cpu time :   861.5 secs   av.it.:  11.2
      thresh= 4.759E-07 alpha_mix =  0.300 |ddv_scf|^2 =  5.487E-11

      iter #   8 total cpu time :   874.5 secs   av.it.:  10.6
      thresh= 7.408E-07 alpha_mix =  0.300 |ddv_scf|^2 =  1.013E-12

      iter #   9 total cpu time :   887.9 secs   av.it.:  11.7
      thresh= 1.006E-07 alpha_mix =  0.300 |ddv_scf|^2 =  1.739E-12

      iter #  10 total cpu time :   901.5 secs   av.it.:  10.9
      thresh= 1.319E-07 alpha_mix =  0.300 |ddv_scf|^2 =  1.254E-13

      iter #  11 total cpu time :   916.0 secs   av.it.:  11.4
      thresh= 3.541E-08 alpha_mix =  0.300 |ddv_scf|^2 =  1.242E-14

      iter #  12 total cpu time :   931.4 secs   av.it.:  12.1
      thresh= 1.114E-08 alpha_mix =  0.300 |ddv_scf|^2 =  1.433E-15

     End of self-consistent calculation

     Convergence has been achieved 


     Representation #   6 mode #   6

     Self-consistent Calculation

      iter #   1 total cpu time :   952.2 secs   av.it.:   5.2
      thresh= 1.000E-02 alpha_mix =  0.300 |ddv_scf|^2 =  8.003E-06

      iter #   2 total cpu time :   964.1 secs   av.it.:  10.6
      thresh= 2.829E-04 alpha_mix =  0.300 |ddv_scf|^2 =  4.166E-05

      iter #   3 total cpu time :   977.3 secs   av.it.:   8.9
      thresh= 6.455E-04 alpha_mix =  0.300 |ddv_scf|^2 =  3.062E-09

      iter #   4 total cpu time :   990.3 secs   av.it.:  11.6
      thresh= 5.534E-06 alpha_mix =  0.300 |ddv_scf|^2 =  6.978E-10

      iter #   5 total cpu time :  1002.7 secs   av.it.:  12.3
      thresh= 2.642E-06 alpha_mix =  0.300 |ddv_scf|^2 =  4.551E-11

      iter #   6 total cpu time :  1015.7 secs   av.it.:  12.0
      thresh= 6.746E-07 alpha_mix =  0.300 |ddv_scf|^2 =  1.680E-11

      iter #   7 total cpu time :  1028.1 secs   av.it.:  10.8
      thresh= 4.099E-07 alpha_mix =  0.300 |ddv_scf|^2 =  3.008E-11

      iter #   8 total cpu time :  1041.7 secs   av.it.:  10.7
      thresh= 5.485E-07 alpha_mix =  0.300 |ddv_scf|^2 =  6.738E-13

      iter #   9 total cpu time :  1055.6 secs   av.it.:  12.0
      thresh= 8.209E-08 alpha_mix =  0.300 |ddv_scf|^2 =  7.379E-13

      iter #  10 total cpu time :  1070.6 secs   av.it.:  10.7
      thresh= 8.590E-08 alpha_mix =  0.300 |ddv_scf|^2 =  1.381E-13

      iter #  11 total cpu time :  1082.9 secs   av.it.:  11.3
      thresh= 3.716E-08 alpha_mix =  0.300 |ddv_scf|^2 =  1.225E-14

      iter #  12 total cpu time :  1095.4 secs   av.it.:  12.0
      thresh= 1.107E-08 alpha_mix =  0.300 |ddv_scf|^2 =  2.652E-15

     End of self-consistent calculation

     Convergence has been achieved 


     Representation #   7 mode #   7

     Self-consistent Calculation

      iter #   1 total cpu time :  1117.4 secs   av.it.:   5.1
      thresh= 1.000E-02 alpha_mix =  0.300 |ddv_scf|^2 =  1.660E-06

      iter #   2 total cpu time :  1129.3 secs   av.it.:  10.8
      thresh= 1.288E-04 alpha_mix =  0.300 |ddv_scf|^2 =  8.085E-06

      iter #   3 total cpu time :  1140.4 secs   av.it.:   8.9
      thresh= 2.843E-04 alpha_mix =  0.300 |ddv_scf|^2 =  1.234E-08

      iter #   4 total cpu time :  1151.9 secs   av.it.:  11.7
      thresh= 1.111E-05 alpha_mix =  0.300 |ddv_scf|^2 =  6.106E-10

      iter #   5 total cpu time :  1166.9 secs   av.it.:  11.8
      thresh= 2.471E-06 alpha_mix =  0.300 |ddv_scf|^2 =  9.054E-11

      iter #   6 total cpu time :  1180.4 secs   av.it.:  12.2
      thresh= 9.515E-07 alpha_mix =  0.300 |ddv_scf|^2 =  1.301E-11

      iter #   7 total cpu time :  1193.9 secs   av.it.:  11.2
      thresh= 3.606E-07 alpha_mix =  0.300 |ddv_scf|^2 =  2.042E-11

      iter #   8 total cpu time :  1208.4 secs   av.it.:  10.0
      thresh= 4.519E-07 alpha_mix =  0.300 |ddv_scf|^2 =  2.392E-12

      iter #   9 total cpu time :  1222.9 secs   av.it.:  11.2
      thresh= 1.547E-07 alpha_mix =  0.300 |ddv_scf|^2 =  1.354E-12

      iter #  10 total cpu time :  1237.1 secs   av.it.:  10.9
      thresh= 1.163E-07 alpha_mix =  0.300 |ddv_scf|^2 =  7.703E-14

      iter #  11 total cpu time :  1252.6 secs   av.it.:  11.6
      thresh= 2.775E-08 alpha_mix =  0.300 |ddv_scf|^2 =  1.030E-14

      iter #  12 total cpu time :  1267.4 secs   av.it.:  11.6
      thresh= 1.015E-08 alpha_mix =  0.300 |ddv_scf|^2 =  2.411E-15

     End of self-consistent calculation

     Convergence has been achieved 


     Representation #   8 mode #   8

     Self-consistent Calculation

      iter #   1 total cpu time :  1288.1 secs   av.it.:   5.2
      thresh= 1.000E-02 alpha_mix =  0.300 |ddv_scf|^2 =  8.003E-06

      iter #   2 total cpu time :  1302.4 secs   av.it.:  10.6
      thresh= 2.829E-04 alpha_mix =  0.300 |ddv_scf|^2 =  4.166E-05

      iter #   3 total cpu time :  1314.4 secs   av.it.:   8.9
      thresh= 6.455E-04 alpha_mix =  0.300 |ddv_scf|^2 =  3.062E-09

      iter #   4 total cpu time :  1327.4 secs   av.it.:  11.6
      thresh= 5.534E-06 alpha_mix =  0.300 |ddv_scf|^2 =  6.978E-10

      iter #   5 total cpu time :  1339.2 secs   av.it.:  12.3
      thresh= 2.642E-06 alpha_mix =  0.300 |ddv_scf|^2 =  4.551E-11

      iter #   6 total cpu time :  1354.3 secs   av.it.:  12.0
      thresh= 6.746E-07 alpha_mix =  0.300 |ddv_scf|^2 =  1.680E-11

      iter #   7 total cpu time :  1368.6 secs   av.it.:  10.8
      thresh= 4.099E-07 alpha_mix =  0.300 |ddv_scf|^2 =  3.008E-11

      iter #   8 total cpu time :  1381.6 secs   av.it.:  10.7
      thresh= 5.485E-07 alpha_mix =  0.300 |ddv_scf|^2 =  6.738E-13

      iter #   9 total cpu time :  1395.7 secs   av.it.:  12.0
      thresh= 8.209E-08 alpha_mix =  0.300 |ddv_scf|^2 =  7.379E-13

      iter #  10 total cpu time :  1408.9 secs   av.it.:  10.7
      thresh= 8.590E-08 alpha_mix =  0.300 |ddv_scf|^2 =  1.381E-13

      iter #  11 total cpu time :  1422.1 secs   av.it.:  11.3
      thresh= 3.716E-08 alpha_mix =  0.300 |ddv_scf|^2 =  1.225E-14

      iter #  12 total cpu time :  1434.8 secs   av.it.:  12.0
      thresh= 1.107E-08 alpha_mix =  0.300 |ddv_scf|^2 =  2.652E-15

     End of self-consistent calculation

     Convergence has been achieved 


     Representation #   9 mode #   9

     Self-consistent Calculation

      iter #   1 total cpu time :  1456.8 secs   av.it.:   5.5
      thresh= 1.000E-02 alpha_mix =  0.300 |ddv_scf|^2 =  1.026E-05

      iter #   2 total cpu time :  1470.2 secs   av.it.:  10.6
      thresh= 3.203E-04 alpha_mix =  0.300 |ddv_scf|^2 =  5.294E-05

      iter #   3 total cpu time :  1484.9 secs   av.it.:   8.9
      thresh= 7.276E-04 alpha_mix =  0.300 |ddv_scf|^2 =  9.495E-09

      iter #   4 total cpu time :  1496.9 secs   av.it.:  11.5
      thresh= 9.744E-06 alpha_mix =  0.300 |ddv_scf|^2 =  1.250E-09

      iter #   5 total cpu time :  1509.7 secs   av.it.:  11.9
      thresh= 3.536E-06 alpha_mix =  0.300 |ddv_scf|^2 =  9.143E-11

      iter #   6 total cpu time :  1522.2 secs   av.it.:  12.1
      thresh= 9.562E-07 alpha_mix =  0.300 |ddv_scf|^2 =  1.494E-11

      iter #   7 total cpu time :  1535.9 secs   av.it.:  11.6
      thresh= 3.865E-07 alpha_mix =  0.300 |ddv_scf|^2 =  2.862E-11

      iter #   8 total cpu time :  1548.6 secs   av.it.:   9.8
      thresh= 5.349E-07 alpha_mix =  0.300 |ddv_scf|^2 =  4.090E-12

      iter #   9 total cpu time :  1561.6 secs   av.it.:  11.0
      thresh= 2.022E-07 alpha_mix =  0.300 |ddv_scf|^2 =  2.337E-12

      iter #  10 total cpu time :  1576.1 secs   av.it.:  11.1
      thresh= 1.529E-07 alpha_mix =  0.300 |ddv_scf|^2 =  7.521E-14

      iter #  11 total cpu time :  1590.3 secs   av.it.:  11.7
      thresh= 2.742E-08 alpha_mix =  0.300 |ddv_scf|^2 =  1.488E-14

      iter #  12 total cpu time :  1603.9 secs   av.it.:  12.0
      thresh= 1.220E-08 alpha_mix =  0.300 |ddv_scf|^2 =  2.355E-15

     End of self-consistent calculation

     Convergence has been achieved 


     Representation #  10 mode #  10

     Self-consistent Calculation

      iter #   1 total cpu time :  1625.2 secs   av.it.:   4.1
      thresh= 1.000E-02 alpha_mix =  0.300 |ddv_scf|^2 =  1.574E-09

      iter #   2 total cpu time :  1637.2 secs   av.it.:  11.9
      thresh= 3.967E-06 alpha_mix =  0.300 |ddv_scf|^2 =  7.217E-10

      iter #   3 total cpu time :  1653.3 secs   av.it.:  12.2
      thresh= 2.686E-06 alpha_mix =  0.300 |ddv_scf|^2 =  3.333E-12

      iter #   4 total cpu time :  1667.3 secs   av.it.:  12.0
      thresh= 1.826E-07 alpha_mix =  0.300 |ddv_scf|^2 =  1.916E-13

      iter #   5 total cpu time :  1683.9 secs   av.it.:  11.4
      thresh= 4.377E-08 alpha_mix =  0.300 |ddv_scf|^2 =  5.268E-15

     End of self-consistent calculation

     Convergence has been achieved 


     Representation #  11 mode #  11

     Self-consistent Calculation

      iter #   1 total cpu time :  1702.3 secs   av.it.:   4.1
      thresh= 1.000E-02 alpha_mix =  0.300 |ddv_scf|^2 =  1.574E-09

      iter #   2 total cpu time :  1712.9 secs   av.it.:  11.9
      thresh= 3.967E-06 alpha_mix =  0.300 |ddv_scf|^2 =  7.217E-10

      iter #   3 total cpu time :  1725.6 secs   av.it.:  12.2
      thresh= 2.686E-06 alpha_mix =  0.300 |ddv_scf|^2 =  3.333E-12

      iter #   4 total cpu time :  1739.5 secs   av.it.:  12.0
      thresh= 1.826E-07 alpha_mix =  0.300 |ddv_scf|^2 =  1.916E-13

      iter #   5 total cpu time :  1751.3 secs   av.it.:  11.4
      thresh= 4.377E-08 alpha_mix =  0.300 |ddv_scf|^2 =  5.268E-15

     End of self-consistent calculation

     Convergence has been achieved 


     Representation #  12 modes #  12  13

     Self-consistent Calculation

      iter #   1 total cpu time :  1781.1 secs   av.it.:   4.4
      thresh= 1.000E-02 alpha_mix =  0.300 |ddv_scf|^2 =  1.385E-09

      iter #   2 total cpu time :  1801.4 secs   av.it.:  12.9
      thresh= 3.721E-06 alpha_mix =  0.300 |ddv_scf|^2 =  4.011E-10

      iter #   3 total cpu time :  1820.6 secs   av.it.:  13.6
      thresh= 2.003E-06 alpha_mix =  0.300 |ddv_scf|^2 =  2.364E-11

      iter #   4 total cpu time :  1839.7 secs   av.it.:  13.4
      thresh= 4.862E-07 alpha_mix =  0.300 |ddv_scf|^2 =  1.463E-12

      iter #   5 total cpu time :  1861.5 secs   av.it.:  13.4
      thresh= 1.210E-07 alpha_mix =  0.300 |ddv_scf|^2 =  2.437E-13

      iter #   6 total cpu time :  1881.5 secs   av.it.:  13.8
      thresh= 4.936E-08 alpha_mix =  0.300 |ddv_scf|^2 =  1.243E-14

      iter #   7 total cpu time :  1901.3 secs   av.it.:  13.6
      thresh= 1.115E-08 alpha_mix =  0.300 |ddv_scf|^2 =  6.830E-16

     End of self-consistent calculation

     Convergence has been achieved 


     Representation #  13 modes #  14  15

     Self-consistent Calculation

      iter #   1 total cpu time :  1932.9 secs   av.it.:   5.0
      thresh= 1.000E-02 alpha_mix =  0.300 |ddv_scf|^2 =  1.343E-08

      iter #   2 total cpu time :  1952.9 secs   av.it.:  12.5
      thresh= 1.159E-05 alpha_mix =  0.300 |ddv_scf|^2 =  2.400E-09

      iter #   3 total cpu time :  1973.0 secs   av.it.:  13.3
      thresh= 4.899E-06 alpha_mix =  0.300 |ddv_scf|^2 =  6.511E-11

      iter #   4 total cpu time :  1994.8 secs   av.it.:  13.6
      thresh= 8.069E-07 alpha_mix =  0.300 |ddv_scf|^2 =  2.987E-12

      iter #   5 total cpu time :  2015.3 secs   av.it.:  13.6
      thresh= 1.728E-07 alpha_mix =  0.300 |ddv_scf|^2 =  2.710E-13

      iter #   6 total cpu time :  2037.2 secs   av.it.:  13.4
      thresh= 5.206E-08 alpha_mix =  0.300 |ddv_scf|^2 =  4.335E-14

      iter #   7 total cpu time :  2055.8 secs   av.it.:  13.5
      thresh= 2.082E-08 alpha_mix =  0.300 |ddv_scf|^2 =  1.803E-15

     End of self-consistent calculation

     Convergence has been achieved 


     Representation #  14 modes #  16  17

     Self-consistent Calculation

      iter #   1 total cpu time :  2087.7 secs   av.it.:   4.7
      thresh= 1.000E-02 alpha_mix =  0.300 |ddv_scf|^2 =  8.473E-09

      iter #   2 total cpu time :  2107.7 secs   av.it.:  12.6
      thresh= 9.205E-06 alpha_mix =  0.300 |ddv_scf|^2 =  1.585E-09

      iter #   3 total cpu time :  2126.5 secs   av.it.:  13.4
      thresh= 3.981E-06 alpha_mix =  0.300 |ddv_scf|^2 =  4.926E-11

      iter #   4 total cpu time :  2145.5 secs   av.it.:  13.6
      thresh= 7.019E-07 alpha_mix =  0.300 |ddv_scf|^2 =  2.784E-12

      iter #   5 total cpu time :  2164.3 secs   av.it.:  13.4
      thresh= 1.668E-07 alpha_mix =  0.300 |ddv_scf|^2 =  2.943E-13

      iter #   6 total cpu time :  2184.7 secs   av.it.:  13.6
      thresh= 5.425E-08 alpha_mix =  0.300 |ddv_scf|^2 =  3.048E-14

      iter #   7 total cpu time :  2203.8 secs   av.it.:  13.4
      thresh= 1.746E-08 alpha_mix =  0.300 |ddv_scf|^2 =  1.591E-15

     End of self-consistent calculation

     Convergence has been achieved 


     Representation #  15 modes #  18  19

     Self-consistent Calculation

      iter #   1 total cpu time :  2236.7 secs   av.it.:   4.6
      thresh= 1.000E-02 alpha_mix =  0.300 |ddv_scf|^2 =  7.750E-09

      iter #   2 total cpu time :  2254.8 secs   av.it.:  12.5
      thresh= 8.803E-06 alpha_mix =  0.300 |ddv_scf|^2 =  1.468E-09

      iter #   3 total cpu time :  2275.9 secs   av.it.:  13.3
      thresh= 3.831E-06 alpha_mix =  0.300 |ddv_scf|^2 =  4.540E-11

      iter #   4 total cpu time :  2294.3 secs   av.it.:  13.5
      thresh= 6.738E-07 alpha_mix =  0.300 |ddv_scf|^2 =  2.766E-12

      iter #   5 total cpu time :  2313.1 secs   av.it.:  13.3
      thresh= 1.663E-07 alpha_mix =  0.300 |ddv_scf|^2 =  2.829E-13

      iter #   6 total cpu time :  2334.4 secs   av.it.:  13.5
      thresh= 5.319E-08 alpha_mix =  0.300 |ddv_scf|^2 =  2.756E-14

      iter #   7 total cpu time :  2352.5 secs   av.it.:  13.3
      thresh= 1.660E-08 alpha_mix =  0.300 |ddv_scf|^2 =  1.590E-15

     End of self-consistent calculation

     Convergence has been achieved 


     Representation #  16 modes #  20  21

     Self-consistent Calculation

      iter #   1 total cpu time :  2386.6 secs   av.it.:   4.7
      thresh= 1.000E-02 alpha_mix =  0.300 |ddv_scf|^2 =  7.749E-09

      iter #   2 total cpu time :  2406.8 secs   av.it.:  12.6
      thresh= 8.803E-06 alpha_mix =  0.300 |ddv_scf|^2 =  1.468E-09

      iter #   3 total cpu time :  2426.8 secs   av.it.:  13.4
      thresh= 3.831E-06 alpha_mix =  0.300 |ddv_scf|^2 =  4.540E-11

      iter #   4 total cpu time :  2447.8 secs   av.it.:  13.6
      thresh= 6.738E-07 alpha_mix =  0.300 |ddv_scf|^2 =  2.756E-12

      iter #   5 total cpu time :  2468.5 secs   av.it.:  13.4
      thresh= 1.660E-07 alpha_mix =  0.300 |ddv_scf|^2 =  2.848E-13

      iter #   6 total cpu time :  2488.7 secs   av.it.:  13.6
      thresh= 5.336E-08 alpha_mix =  0.300 |ddv_scf|^2 =  2.780E-14

      iter #   7 total cpu time :  2508.1 secs   av.it.:  13.5
      thresh= 1.667E-08 alpha_mix =  0.300 |ddv_scf|^2 =  1.590E-15

     End of self-consistent calculation

     Convergence has been achieved 


     Representation #  17 modes #  22  23

     Self-consistent Calculation

      iter #   1 total cpu time :  2537.9 secs   av.it.:   4.2
      thresh= 1.000E-02 alpha_mix =  0.300 |ddv_scf|^2 =  9.090E-10

      iter #   2 total cpu time :  2557.4 secs   av.it.:  13.1
      thresh= 3.015E-06 alpha_mix =  0.300 |ddv_scf|^2 =  2.585E-10

      iter #   3 total cpu time :  2576.3 secs   av.it.:  13.4
      thresh= 1.608E-06 alpha_mix =  0.300 |ddv_scf|^2 =  2.092E-11

      iter #   4 total cpu time :  2596.6 secs   av.it.:  13.4
      thresh= 4.574E-07 alpha_mix =  0.300 |ddv_scf|^2 =  8.505E-13

      iter #   5 total cpu time :  2618.1 secs   av.it.:  13.4
      thresh= 9.222E-08 alpha_mix =  0.300 |ddv_scf|^2 =  1.493E-13

      iter #   6 total cpu time :  2638.8 secs   av.it.:  13.6
      thresh= 3.863E-08 alpha_mix =  0.300 |ddv_scf|^2 =  1.013E-14

      iter #   7 total cpu time :  2657.4 secs   av.it.:  13.6
      thresh= 1.006E-08 alpha_mix =  0.300 |ddv_scf|^2 =  4.608E-16

     End of self-consistent calculation

     Convergence has been achieved 


     Representation #  18 modes #  24  25

     Self-consistent Calculation

      iter #   1 total cpu time :  2692.1 secs   av.it.:   4.7
      thresh= 1.000E-02 alpha_mix =  0.300 |ddv_scf|^2 =  7.593E-09

      iter #   2 total cpu time :  2712.2 secs   av.it.:  12.6
      thresh= 8.714E-06 alpha_mix =  0.300 |ddv_scf|^2 =  1.501E-09

      iter #   3 total cpu time :  2733.8 secs   av.it.:  13.3
      thresh= 3.874E-06 alpha_mix =  0.300 |ddv_scf|^2 =  5.652E-11

      iter #   4 total cpu time :  2751.7 secs   av.it.:  13.5
      thresh= 7.518E-07 alpha_mix =  0.300 |ddv_scf|^2 =  2.415E-12

      iter #   5 total cpu time :  2770.1 secs   av.it.:  13.4
      thresh= 1.554E-07 alpha_mix =  0.300 |ddv_scf|^2 =  2.675E-13

      iter #   6 total cpu time :  2789.7 secs   av.it.:  13.5
      thresh= 5.172E-08 alpha_mix =  0.300 |ddv_scf|^2 =  3.390E-14

      iter #   7 total cpu time :  2810.4 secs   av.it.:  13.3
      thresh= 1.841E-08 alpha_mix =  0.300 |ddv_scf|^2 =  1.499E-15

     End of self-consistent calculation

     Convergence has been achieved 


     Representation #  19 modes #  26  27

     Self-consistent Calculation

      iter #   1 total cpu time :  2840.6 secs   av.it.:   4.5
      thresh= 1.000E-02 alpha_mix =  0.300 |ddv_scf|^2 =  2.960E-09

      iter #   2 total cpu time :  2860.8 secs   av.it.:  12.7
      thresh= 5.440E-06 alpha_mix =  0.300 |ddv_scf|^2 =  8.387E-10

      iter #   3 total cpu time :  2879.9 secs   av.it.:  13.5
      thresh= 2.896E-06 alpha_mix =  0.300 |ddv_scf|^2 =  3.340E-11

      iter #   4 total cpu time :  2899.9 secs   av.it.:  13.5
      thresh= 5.779E-07 alpha_mix =  0.300 |ddv_scf|^2 =  1.916E-12

      iter #   5 total cpu time :  2920.1 secs   av.it.:  13.4
      thresh= 1.384E-07 alpha_mix =  0.300 |ddv_scf|^2 =  2.438E-13

      iter #   6 total cpu time :  2941.3 secs   av.it.:  13.7
      thresh= 4.938E-08 alpha_mix =  0.300 |ddv_scf|^2 =  2.289E-14

      iter #   7 total cpu time :  2963.3 secs   av.it.:  13.5
      thresh= 1.513E-08 alpha_mix =  0.300 |ddv_scf|^2 =  9.589E-16

     End of self-consistent calculation

     Convergence has been achieved 


     Representation #  20 modes #  28  29

     Self-consistent Calculation

      iter #   1 total cpu time :  2996.4 secs   av.it.:   4.7
      thresh= 1.000E-02 alpha_mix =  0.300 |ddv_scf|^2 =  8.474E-09

      iter #   2 total cpu time :  3015.7 secs   av.it.:  12.6
      thresh= 9.205E-06 alpha_mix =  0.300 |ddv_scf|^2 =  1.585E-09

      iter #   3 total cpu time :  3037.5 secs   av.it.:  13.4
      thresh= 3.981E-06 alpha_mix =  0.300 |ddv_scf|^2 =  4.927E-11

      iter #   4 total cpu time :  3057.1 secs   av.it.:  13.6
      thresh= 7.019E-07 alpha_mix =  0.300 |ddv_scf|^2 =  2.771E-12

      iter #   5 total cpu time :  3075.6 secs   av.it.:  13.4
      thresh= 1.665E-07 alpha_mix =  0.300 |ddv_scf|^2 =  2.935E-13

      iter #   6 total cpu time :  3095.0 secs   av.it.:  13.5
      thresh= 5.417E-08 alpha_mix =  0.300 |ddv_scf|^2 =  3.066E-14

      iter #   7 total cpu time :  3114.0 secs   av.it.:  13.5
      thresh= 1.751E-08 alpha_mix =  0.300 |ddv_scf|^2 =  1.590E-15

     End of self-consistent calculation

     Convergence has been achieved 


     Representation #  21 modes #  30  31

     Self-consistent Calculation

      iter #   1 total cpu time :  3143.7 secs   av.it.:   4.8
      thresh= 1.000E-02 alpha_mix =  0.300 |ddv_scf|^2 =  8.293E-09

      iter #   2 total cpu time :  3162.8 secs   av.it.:  12.5
      thresh= 9.106E-06 alpha_mix =  0.300 |ddv_scf|^2 =  1.602E-09

      iter #   3 total cpu time :  3182.3 secs   av.it.:  13.3
      thresh= 4.002E-06 alpha_mix =  0.300 |ddv_scf|^2 =  5.826E-11

      iter #   4 total cpu time :  3203.1 secs   av.it.:  13.6
      thresh= 7.633E-07 alpha_mix =  0.300 |ddv_scf|^2 =  2.634E-12

      iter #   5 total cpu time :  3223.8 secs   av.it.:  13.5
      thresh= 1.623E-07 alpha_mix =  0.300 |ddv_scf|^2 =  2.370E-13

      iter #   6 total cpu time :  3244.5 secs   av.it.:  13.5
      thresh= 4.868E-08 alpha_mix =  0.300 |ddv_scf|^2 =  3.319E-14

      iter #   7 total cpu time :  3263.7 secs   av.it.:  13.4
      thresh= 1.822E-08 alpha_mix =  0.300 |ddv_scf|^2 =  1.560E-15

     End of self-consistent calculation

     Convergence has been achieved 


     Representation #  22 modes #  32  33

     Self-consistent Calculation

      iter #   1 total cpu time :  3296.1 secs   av.it.:   7.1
      thresh= 1.000E-02 alpha_mix =  0.300 |ddv_scf|^2 =  2.738E-07

      iter #   2 total cpu time :  3317.5 secs   av.it.:  12.4
      thresh= 5.232E-05 alpha_mix =  0.300 |ddv_scf|^2 =  5.415E-08

      iter #   3 total cpu time :  3340.6 secs   av.it.:  13.1
      thresh= 2.327E-05 alpha_mix =  0.300 |ddv_scf|^2 =  4.707E-09

      iter #   4 total cpu time :  3359.9 secs   av.it.:  13.5
      thresh= 6.861E-06 alpha_mix =  0.300 |ddv_scf|^2 =  7.434E-11

      iter #   5 total cpu time :  3381.2 secs   av.it.:  13.1
      thresh= 8.622E-07 alpha_mix =  0.300 |ddv_scf|^2 =  6.841E-12

      iter #   6 total cpu time :  3402.1 secs   av.it.:  12.7
      thresh= 2.616E-07 alpha_mix =  0.300 |ddv_scf|^2 =  1.413E-12

      iter #   7 total cpu time :  3421.3 secs   av.it.:  13.4
      thresh= 1.189E-07 alpha_mix =  0.300 |ddv_scf|^2 =  3.122E-14

      iter #   8 total cpu time :  3440.3 secs   av.it.:  12.5
      thresh= 1.767E-08 alpha_mix =  0.300 |ddv_scf|^2 =  9.856E-15

     End of self-consistent calculation

     Convergence has been achieved 
 
     Number of q in the star =    8
     List of q in the star:
          1   0.235702260   0.235702260  -0.235702260
          2   0.235702260  -0.235702260  -0.235702260
          3   0.235702260   0.235702260   0.235702260
          4  -0.235702260  -0.235702260   0.235702260
          5  -0.235702260   0.235702260  -0.235702260
          6  -0.235702260  -0.235702260  -0.235702260
          7  -0.235702260   0.235702260   0.235702260
          8   0.235702260  -0.235702260   0.235702260

     Diagonalizing the dynamical matrix

     q = (    0.235702260   0.235702260  -0.235702260 ) 

 **************************************************************************
     freq (    1) =       5.464969 [THz] =     182.291729 [cm-1]
     freq (    2) =       5.464969 [THz] =     182.291729 [cm-1]
     freq (    3) =       8.549244 [THz] =     285.172094 [cm-1]
     freq (    4) =      20.969533 [THz] =     699.468321 [cm-1]
     freq (    5) =      22.737286 [THz] =     758.434234 [cm-1]
     freq (    6) =      22.737286 [THz] =     758.434234 [cm-1]
     freq (    7) =      28.009162 [THz] =     934.285085 [cm-1]
     freq (    8) =      28.009162 [THz] =     934.285085 [cm-1]
     freq (    9) =      29.887641 [THz] =     996.944403 [cm-1]
     freq (   10) =      30.574995 [THz] =    1019.872039 [cm-1]
     freq (   11) =      30.574995 [THz] =    1019.872039 [cm-1]
     freq (   12) =      36.227865 [THz] =    1208.431511 [cm-1]
     freq (   13) =      36.227865 [THz] =    1208.431511 [cm-1]
     freq (   14) =      37.301005 [THz] =    1244.227615 [cm-1]
     freq (   15) =      38.117583 [THz] =    1271.465710 [cm-1]
     freq (   16) =      40.051241 [THz] =    1335.965604 [cm-1]
     freq (   17) =      41.053229 [THz] =    1369.388313 [cm-1]
     freq (   18) =      41.245366 [THz] =    1375.797313 [cm-1]
     freq (   19) =      41.245366 [THz] =    1375.797313 [cm-1]
     freq (   20) =      41.989991 [THz] =    1400.635342 [cm-1]
     freq (   21) =      41.989991 [THz] =    1400.635342 [cm-1]
     freq (   22) =      43.212107 [THz] =    1441.400735 [cm-1]
     freq (   23) =      43.212107 [THz] =    1441.400735 [cm-1]
     freq (   24) =      46.011009 [THz] =    1534.762068 [cm-1]
     freq (   25) =      46.011009 [THz] =    1534.762068 [cm-1]
     freq (   26) =      48.601636 [THz] =    1621.176089 [cm-1]
     freq (   27) =      51.956002 [THz] =    1733.065684 [cm-1]
     freq (   28) =      52.167396 [THz] =    1740.117029 [cm-1]
     freq (   29) =      52.167396 [THz] =    1740.117029 [cm-1]
     freq (   30) =      52.750536 [THz] =    1759.568496 [cm-1]
     freq (   31) =      52.750536 [THz] =    1759.568496 [cm-1]
     freq (   32) =      57.946607 [THz] =    1932.890751 [cm-1]
     freq (   33) =      63.054722 [THz] =    2103.279140 [cm-1]
 **************************************************************************

     Mode symmetry, C_3v (3m)   point group:

     freq (   1-   2) =        182.3  [cm-1]   --> E    L_3           
     freq (   3-   3) =        285.2  [cm-1]   --> A_1  L_1           
     freq (   4-   4) =        699.5  [cm-1]   --> A_1  L_1           
     freq (   5-   6) =        758.4  [cm-1]   --> E    L_3           
     freq (   7-   8) =        934.3  [cm-1]   --> E    L_3           
     freq (   9-   9) =        996.9  [cm-1]   --> A_1  L_1           
     freq (  10-  11) =       1019.9  [cm-1]   --> E    L_3           
     freq (  12-  13) =       1208.4  [cm-1]   --> E    L_3           
     freq (  14-  14) =       1244.2  [cm-1]   --> A_1  L_1           
     freq (  15-  15) =       1271.5  [cm-1]   --> A_2  L_2           
     freq (  16-  16) =       1336.0  [cm-1]   --> A_2  L_2           
     freq (  17-  17) =       1369.4  [cm-1]   --> A_1  L_1           
     freq (  18-  19) =       1375.8  [cm-1]   --> E    L_3           
     freq (  20-  21) =       1400.6  [cm-1]   --> E    L_3           
     freq (  22-  23) =       1441.4  [cm-1]   --> E    L_3           
     freq (  24-  25) =       1534.8  [cm-1]   --> E    L_3           
     freq (  26-  26) =       1621.2  [cm-1]   --> A_1  L_1           
     freq (  27-  27) =       1733.1  [cm-1]   --> A_1  L_1           
     freq (  28-  29) =       1740.1  [cm-1]   --> E    L_3           
     freq (  30-  31) =       1759.6  [cm-1]   --> E    L_3           
     freq (  32-  32) =       1932.9  [cm-1]   --> A_1  L_1           
     freq (  33-  33) =       2103.3  [cm-1]   --> A_1  L_1           
     Electron-phonon interaction  ...

     Gaussian Broadening:   0.005 Ry, ngauss=   0
     DOS =  5.706849 states/spin/Ry/Unit Cell at Ef= 20.445499 eV
     lambda(    1)=  0.1396   gamma=   22.73 GHz
     lambda(    2)=  0.1400   gamma=   22.78 GHz
     lambda(    3)=  0.0514   gamma=   20.49 GHz
     lambda(    4)=  0.5327   gamma= 1276.45 GHz
     lambda(    5)=  0.7185   gamma= 2024.35 GHz
     lambda(    6)=  0.6951   gamma= 1958.30 GHz
     lambda(    7)=  0.0537   gamma=  229.57 GHz
     lambda(    8)=  0.0576   gamma=  246.07 GHz
     lambda(    9)=  0.0253   gamma=  122.92 GHz
     lambda(   10)=  0.0301   gamma=  153.29 GHz
     lambda(   11)=  0.0292   gamma=  148.82 GHz
     lambda(   12)=  0.0291   gamma=  208.47 GHz
     lambda(   13)=  0.0291   gamma=  208.43 GHz
     lambda(   14)=  0.0896   gamma=  679.39 GHz
     lambda(   15)=  0.0730   gamma=  578.25 GHz
     lambda(   16)=  0.0239   gamma=  208.95 GHz
     lambda(   17)=  0.0245   gamma=  225.02 GHz
     lambda(   18)=  0.0180   gamma=  167.10 GHz
     lambda(   19)=  0.0204   gamma=  189.19 GHz
     lambda(   20)=  0.0563   gamma=  541.41 GHz
     lambda(   21)=  0.0582   gamma=  559.64 GHz
     lambda(   22)=  0.0479   gamma=  487.88 GHz
     lambda(   23)=  0.0484   gamma=  492.46 GHz
     lambda(   24)=  0.0536   gamma=  618.80 GHz
     lambda(   25)=  0.0541   gamma=  624.68 GHz
     lambda(   26)=  0.0328   gamma=  422.41 GHz
     lambda(   27)=  0.0195   gamma=  286.98 GHz
     lambda(   28)=  0.0171   gamma=  253.49 GHz
     lambda(   29)=  0.0170   gamma=  252.22 GHz
     lambda(   30)=  0.0087   gamma=  132.50 GHz
     lambda(   31)=  0.0089   gamma=  134.69 GHz
     lambda(   32)=  0.0100   gamma=  183.16 GHz
     lambda(   33)=  0.0135   gamma=  293.07 GHz
     Gaussian Broadening:   0.010 Ry, ngauss=   0
     DOS =  5.493178 states/spin/Ry/Unit Cell at Ef= 20.444376 eV
     lambda(    1)=  0.1399   gamma=   21.92 GHz
     lambda(    2)=  0.1447   gamma=   22.67 GHz
     lambda(    3)=  0.0592   gamma=   22.71 GHz
     lambda(    4)=  0.6210   gamma= 1432.33 GHz
     lambda(    5)=  0.4976   gamma= 1349.48 GHz
     lambda(    6)=  0.4905   gamma= 1330.13 GHz
     lambda(    7)=  0.0705   gamma=  290.01 GHz
     lambda(    8)=  0.0725   gamma=  298.52 GHz
     lambda(    9)=  0.0310   gamma=  145.14 GHz
     lambda(   10)=  0.0361   gamma=  177.13 GHz
     lambda(   11)=  0.0365   gamma=  179.16 GHz
     lambda(   12)=  0.0406   gamma=  279.19 GHz
     lambda(   13)=  0.0404   gamma=  277.90 GHz
     lambda(   14)=  0.1141   gamma=  832.64 GHz
     lambda(   15)=  0.1048   gamma=  798.60 GHz
     lambda(   16)=  0.0161   gamma=  135.82 GHz
     lambda(   17)=  0.0412   gamma=  364.59 GHz
     lambda(   18)=  0.0255   gamma=  227.93 GHz
     lambda(   19)=  0.0270   gamma=  240.73 GHz
     lambda(   20)=  0.0537   gamma=  496.99 GHz
     lambda(   21)=  0.0553   gamma=  511.15 GHz
     lambda(   22)=  0.0604   gamma=  591.21 GHz
     lambda(   23)=  0.0601   gamma=  588.96 GHz
     lambda(   24)=  0.0961   gamma= 1066.91 GHz
     lambda(   25)=  0.0964   gamma= 1070.81 GHz
     lambda(   26)=  0.0328   gamma=  406.06 GHz
     lambda(   27)=  0.0226   gamma=  320.40 GHz
     lambda(   28)=  0.0200   gamma=  285.24 GHz
     lambda(   29)=  0.0197   gamma=  281.05 GHz
     lambda(   30)=  0.0128   gamma=  186.80 GHz
     lambda(   31)=  0.0130   gamma=  190.42 GHz
     lambda(   32)=  0.0139   gamma=  245.10 GHz
     lambda(   33)=  0.0140   gamma=  292.28 GHz
     Gaussian Broadening:   0.015 Ry, ngauss=   0
     DOS =  5.643591 states/spin/Ry/Unit Cell at Ef= 20.442941 eV
     lambda(    1)=  0.1251   gamma=   20.13 GHz
     lambda(    2)=  0.1286   gamma=   20.70 GHz
     lambda(    3)=  0.0560   gamma=   22.08 GHz
     lambda(    4)=  0.5314   gamma= 1259.22 GHz
     lambda(    5)=  0.4084   gamma= 1137.86 GHz
     lambda(    6)=  0.4073   gamma= 1134.83 GHz
     lambda(    7)=  0.0739   gamma=  312.57 GHz
     lambda(    8)=  0.0757   gamma=  320.20 GHz
     lambda(    9)=  0.0292   gamma=  140.40 GHz
     lambda(   10)=  0.0366   gamma=  184.30 GHz
     lambda(   11)=  0.0368   gamma=  185.56 GHz
     lambda(   12)=  0.0370   gamma=  262.00 GHz
     lambda(   13)=  0.0369   gamma=  260.84 GHz
     lambda(   14)=  0.0987   gamma=  739.79 GHz
     lambda(   15)=  0.1008   gamma=  789.67 GHz
     lambda(   16)=  0.0133   gamma=  114.57 GHz
     lambda(   17)=  0.0391   gamma=  355.48 GHz
     lambda(   18)=  0.0254   gamma=  232.92 GHz
     lambda(   19)=  0.0264   gamma=  241.71 GHz
     lambda(   20)=  0.0399   gamma=  379.23 GHz
     lambda(   21)=  0.0405   gamma=  385.01 GHz
     lambda(   22)=  0.0552   gamma=  556.00 GHz
     lambda(   23)=  0.0549   gamma=  552.86 GHz
     lambda(   24)=  0.1004   gamma= 1146.04 GHz
     lambda(   25)=  0.1007   gamma= 1148.59 GHz
     lambda(   26)=  0.0271   gamma=  345.09 GHz
     lambda(   27)=  0.0187   gamma=  272.36 GHz
     lambda(   28)=  0.0189   gamma=  277.39 GHz
     lambda(   29)=  0.0187   gamma=  274.40 GHz
     lambda(   30)=  0.0127   gamma=  189.95 GHz
     lambda(   31)=  0.0128   gamma=  192.65 GHz
     lambda(   32)=  0.0129   gamma=  234.07 GHz
     lambda(   33)=  0.0119   gamma=  253.95 GHz
     Gaussian Broadening:   0.020 Ry, ngauss=   0
     DOS =  5.693100 states/spin/Ry/Unit Cell at Ef= 20.442131 eV
     lambda(    1)=  0.1150   gamma=   18.67 GHz
     lambda(    2)=  0.1181   gamma=   19.18 GHz
     lambda(    3)=  0.0518   gamma=   20.58 GHz
     lambda(    4)=  0.4834   gamma= 1155.55 GHz
     lambda(    5)=  0.3725   gamma= 1047.02 GHz
     lambda(    6)=  0.3759   gamma= 1056.53 GHz
     lambda(    7)=  0.0734   gamma=  313.27 GHz
     lambda(    8)=  0.0757   gamma=  322.96 GHz
     lambda(    9)=  0.0279   gamma=  135.33 GHz
     lambda(   10)=  0.0353   gamma=  179.57 GHz
     lambda(   11)=  0.0352   gamma=  178.81 GHz
     lambda(   12)=  0.0343   gamma=  244.91 GHz
     lambda(   13)=  0.0342   gamma=  244.23 GHz
     lambda(   14)=  0.0890   gamma=  673.17 GHz
     lambda(   15)=  0.0941   gamma=  743.23 GHz
     lambda(   16)=  0.0120   gamma=  104.90 GHz
     lambda(   17)=  0.0369   gamma=  338.40 GHz
     lambda(   18)=  0.0245   gamma=  226.44 GHz
     lambda(   19)=  0.0251   gamma=  232.13 GHz
     lambda(   20)=  0.0331   gamma=  316.95 GHz
     lambda(   21)=  0.0334   gamma=  319.95 GHz
     lambda(   22)=  0.0509   gamma=  516.50 GHz
     lambda(   23)=  0.0507   gamma=  514.42 GHz
     lambda(   24)=  0.0949   gamma= 1092.57 GHz
     lambda(   25)=  0.0950   gamma= 1093.25 GHz
     lambda(   26)=  0.0242   gamma=  311.09 GHz
     lambda(   27)=  0.0171   gamma=  251.26 GHz
     lambda(   28)=  0.0177   gamma=  261.44 GHz
     lambda(   29)=  0.0175   gamma=  259.21 GHz
     lambda(   30)=  0.0122   gamma=  184.61 GHz
     lambda(   31)=  0.0124   gamma=  187.17 GHz
     lambda(   32)=  0.0121   gamma=  220.15 GHz
     lambda(   33)=  0.0107   gamma=  231.10 GHz
     Gaussian Broadening:   0.025 Ry, ngauss=   0
     DOS =  5.666404 states/spin/Ry/Unit Cell at Ef= 20.442478 eV
     lambda(    1)=  0.1101   gamma=   17.79 GHz
     lambda(    2)=  0.1130   gamma=   18.26 GHz
     lambda(    3)=  0.0492   gamma=   19.46 GHz
     lambda(    4)=  0.4609   gamma= 1096.72 GHz
     lambda(    5)=  0.3560   gamma=  996.01 GHz
     lambda(    6)=  0.3611   gamma= 1010.24 GHz
     lambda(    7)=  0.0733   gamma=  310.99 GHz
     lambda(    8)=  0.0759   gamma=  322.08 GHz
     lambda(    9)=  0.0274   gamma=  132.61 GHz
     lambda(   10)=  0.0345   gamma=  174.64 GHz
     lambda(   11)=  0.0341   gamma=  172.36 GHz
     lambda(   12)=  0.0333   gamma=  236.72 GHz
     lambda(   13)=  0.0333   gamma=  236.28 GHz
     lambda(   14)=  0.0851   gamma=  641.01 GHz
     lambda(   15)=  0.0901   gamma=  708.73 GHz
     lambda(   16)=  0.0114   gamma=   98.73 GHz
     lambda(   17)=  0.0358   gamma=  326.60 GHz
     lambda(   18)=  0.0238   gamma=  219.54 GHz
     lambda(   19)=  0.0243   gamma=  223.37 GHz
     lambda(   20)=  0.0306   gamma=  292.41 GHz
     lambda(   21)=  0.0308   gamma=  294.23 GHz
     lambda(   22)=  0.0490   gamma=  494.69 GHz
     lambda(   23)=  0.0488   gamma=  493.49 GHz
     lambda(   24)=  0.0895   gamma= 1025.72 GHz
     lambda(   25)=  0.0895   gamma= 1025.56 GHz
     lambda(   26)=  0.0232   gamma=  297.05 GHz
     lambda(   27)=  0.0166   gamma=  242.58 GHz
     lambda(   28)=  0.0170   gamma=  250.07 GHz
     lambda(   29)=  0.0169   gamma=  248.45 GHz
     lambda(   30)=  0.0120   gamma=  181.13 GHz
     lambda(   31)=  0.0122   gamma=  183.54 GHz
     lambda(   32)=  0.0116   gamma=  211.62 GHz
     lambda(   33)=  0.0104   gamma=  223.98 GHz
     Gaussian Broadening:   0.030 Ry, ngauss=   0
     DOS =  5.611139 states/spin/Ry/Unit Cell at Ef= 20.443739 eV
     lambda(    1)=  0.1075   gamma=   17.20 GHz
     lambda(    2)=  0.1100   gamma=   17.61 GHz
     lambda(    3)=  0.0474   gamma=   18.56 GHz
     lambda(    4)=  0.4442   gamma= 1046.57 GHz
     lambda(    5)=  0.3460   gamma=  958.53 GHz
     lambda(    6)=  0.3514   gamma=  973.36 GHz
     lambda(    7)=  0.0733   gamma=  308.16 GHz
     lambda(    8)=  0.0760   gamma=  319.38 GHz
     lambda(    9)=  0.0273   gamma=  130.43 GHz
     lambda(   10)=  0.0340   gamma=  170.50 GHz
     lambda(   11)=  0.0334   gamma=  167.54 GHz
     lambda(   12)=  0.0330   gamma=  232.19 GHz
     lambda(   13)=  0.0330   gamma=  231.81 GHz
     lambda(   14)=  0.0833   gamma=  621.37 GHz
     lambda(   15)=  0.0875   gamma=  681.45 GHz
     lambda(   16)=  0.0109   gamma=   93.93 GHz
     lambda(   17)=  0.0353   gamma=  318.47 GHz
     lambda(   18)=  0.0234   gamma=  213.08 GHz
     lambda(   19)=  0.0237   gamma=  215.84 GHz
     lambda(   20)=  0.0301   gamma=  284.16 GHz
     lambda(   21)=  0.0302   gamma=  285.32 GHz
     lambda(   22)=  0.0483   gamma=  482.89 GHz
     lambda(   23)=  0.0482   gamma=  482.20 GHz
     lambda(   24)=  0.0853   gamma=  967.78 GHz
     lambda(   25)=  0.0853   gamma=  967.42 GHz
     lambda(   26)=  0.0229   gamma=  290.23 GHz
     lambda(   27)=  0.0163   gamma=  236.16 GHz
     lambda(   28)=  0.0166   gamma=  242.21 GHz
     lambda(   29)=  0.0165   gamma=  241.02 GHz
     lambda(   30)=  0.0120   gamma=  178.96 GHz
     lambda(   31)=  0.0121   gamma=  181.06 GHz
     lambda(   32)=  0.0114   gamma=  205.25 GHz
     lambda(   33)=  0.0105   gamma=  222.77 GHz
     Gaussian Broadening:   0.035 Ry, ngauss=   0
     DOS =  5.552244 states/spin/Ry/Unit Cell at Ef= 20.445745 eV
     lambda(    1)=  0.1058   gamma=   16.76 GHz
     lambda(    2)=  0.1081   gamma=   17.12 GHz
     lambda(    3)=  0.0460   gamma=   17.83 GHz
     lambda(    4)=  0.4286   gamma=  999.17 GHz
     lambda(    5)=  0.3398   gamma=  931.41 GHz
     lambda(    6)=  0.3450   gamma=  945.54 GHz
     lambda(    7)=  0.0737   gamma=  306.58 GHz
     lambda(    8)=  0.0762   gamma=  317.08 GHz
     lambda(    9)=  0.0271   gamma=  128.34 GHz
     lambda(   10)=  0.0338   gamma=  167.53 GHz
     lambda(   11)=  0.0332   gamma=  164.46 GHz
     lambda(   12)=  0.0329   gamma=  229.25 GHz
     lambda(   13)=  0.0329   gamma=  228.83 GHz
     lambda(   14)=  0.0822   gamma=  606.20 GHz
     lambda(   15)=  0.0856   gamma=  659.30 GHz
     lambda(   16)=  0.0107   gamma=   90.61 GHz
     lambda(   17)=  0.0351   gamma=  313.46 GHz
     lambda(   18)=  0.0230   gamma=  207.85 GHz
     lambda(   19)=  0.0233   gamma=  209.98 GHz
     lambda(   20)=  0.0301   gamma=  281.72 GHz
     lambda(   21)=  0.0302   gamma=  282.49 GHz
     lambda(   22)=  0.0481   gamma=  476.06 GHz
     lambda(   23)=  0.0480   gamma=  475.63 GHz
     lambda(   24)=  0.0823   gamma=  923.81 GHz
     lambda(   25)=  0.0823   gamma=  923.50 GHz
     lambda(   26)=  0.0228   gamma=  285.46 GHz
     lambda(   27)=  0.0161   gamma=  230.94 GHz
     lambda(   28)=  0.0165   gamma=  237.56 GHz
     lambda(   29)=  0.0164   gamma=  236.64 GHz
     lambda(   30)=  0.0120   gamma=  177.59 GHz
     lambda(   31)=  0.0122   gamma=  179.34 GHz
     lambda(   32)=  0.0112   gamma=  200.10 GHz
     lambda(   33)=  0.0106   gamma=  222.92 GHz
     Gaussian Broadening:   0.040 Ry, ngauss=   0
     DOS =  5.498034 states/spin/Ry/Unit Cell at Ef= 20.448391 eV
     lambda(    1)=  0.1049   gamma=   16.45 GHz
     lambda(    2)=  0.1069   gamma=   16.76 GHz
     lambda(    3)=  0.0450   gamma=   17.25 GHz
     lambda(    4)=  0.4139   gamma=  955.57 GHz
     lambda(    5)=  0.3363   gamma=  912.79 GHz
     lambda(    6)=  0.3412   gamma=  926.10 GHz
     lambda(    7)=  0.0744   gamma=  306.40 GHz
     lambda(    8)=  0.0767   gamma=  315.78 GHz
     lambda(    9)=  0.0269   gamma=  126.29 GHz
     lambda(   10)=  0.0337   gamma=  165.62 GHz
     lambda(   11)=  0.0332   gamma=  162.72 GHz
     lambda(   12)=  0.0330   gamma=  227.30 GHz
     lambda(   13)=  0.0329   gamma=  226.81 GHz
     lambda(   14)=  0.0813   gamma=  593.55 GHz
     lambda(   15)=  0.0841   gamma=  641.41 GHz
     lambda(   16)=  0.0105   gamma=   88.57 GHz
     lambda(   17)=  0.0351   gamma=  310.70 GHz
     lambda(   18)=  0.0228   gamma=  203.98 GHz
     lambda(   19)=  0.0230   gamma=  205.74 GHz
     lambda(   20)=  0.0304   gamma=  281.40 GHz
     lambda(   21)=  0.0305   gamma=  281.97 GHz
     lambda(   22)=  0.0481   gamma=  471.98 GHz
     lambda(   23)=  0.0481   gamma=  471.68 GHz
     lambda(   24)=  0.0802   gamma=  891.80 GHz
     lambda(   25)=  0.0802   gamma=  891.55 GHz
     lambda(   26)=  0.0227   gamma=  281.45 GHz
     lambda(   27)=  0.0160   gamma=  227.28 GHz
     lambda(   28)=  0.0165   gamma=  235.41 GHz
     lambda(   29)=  0.0164   gamma=  234.65 GHz
     lambda(   30)=  0.0121   gamma=  176.83 GHz
     lambda(   31)=  0.0122   gamma=  178.24 GHz
     lambda(   32)=  0.0111   gamma=  196.00 GHz
     lambda(   33)=  0.0107   gamma=  223.34 GHz
     Gaussian Broadening:   0.045 Ry, ngauss=   0
     DOS =  5.450225 states/spin/Ry/Unit Cell at Ef= 20.451582 eV
     lambda(    1)=  0.1044   gamma=   16.23 GHz
     lambda(    2)=  0.1061   gamma=   16.50 GHz
     lambda(    3)=  0.0441   gamma=   16.79 GHz
     lambda(    4)=  0.4005   gamma=  916.69 GHz
     lambda(    5)=  0.3346   gamma=  900.32 GHz
     lambda(    6)=  0.3393   gamma=  913.09 GHz
     lambda(    7)=  0.0752   gamma=  307.07 GHz
     lambda(    8)=  0.0772   gamma=  315.22 GHz
     lambda(    9)=  0.0267   gamma=  124.31 GHz
     lambda(   10)=  0.0338   gamma=  164.46 GHz
     lambda(   11)=  0.0333   gamma=  161.81 GHz
     lambda(   12)=  0.0331   gamma=  226.05 GHz
     lambda(   13)=  0.0330   gamma=  225.53 GHz
     lambda(   14)=  0.0805   gamma=  582.94 GHz
     lambda(   15)=  0.0829   gamma=  626.75 GHz
     lambda(   16)=  0.0105   gamma=   87.37 GHz
     lambda(   17)=  0.0353   gamma=  309.51 GHz
     lambda(   18)=  0.0227   gamma=  201.31 GHz
     lambda(   19)=  0.0229   gamma=  202.78 GHz
     lambda(   20)=  0.0307   gamma=  282.04 GHz
     lambda(   21)=  0.0308   gamma=  282.52 GHz
     lambda(   22)=  0.0483   gamma=  469.60 GHz
     lambda(   23)=  0.0483   gamma=  469.34 GHz
     lambda(   24)=  0.0788   gamma=  868.40 GHz
     lambda(   25)=  0.0788   gamma=  868.16 GHz
     lambda(   26)=  0.0226   gamma=  277.97 GHz
     lambda(   27)=  0.0160   gamma=  225.18 GHz
     lambda(   28)=  0.0166   gamma=  234.98 GHz
     lambda(   29)=  0.0165   gamma=  234.30 GHz
     lambda(   30)=  0.0122   gamma=  176.55 GHz
     lambda(   31)=  0.0123   gamma=  177.66 GHz
     lambda(   32)=  0.0110   gamma=  192.83 GHz
     lambda(   33)=  0.0108   gamma=  223.96 GHz
     Gaussian Broadening:   0.050 Ry, ngauss=   0
     DOS =  5.408705 states/spin/Ry/Unit Cell at Ef= 20.455233 eV
     lambda(    1)=  0.1042   gamma=   16.08 GHz
     lambda(    2)=  0.1058   gamma=   16.31 GHz
     lambda(    3)=  0.0435   gamma=   16.42 GHz
     lambda(    4)=  0.3886   gamma=  882.60 GHz
     lambda(    5)=  0.3341   gamma=  892.16 GHz
     lambda(    6)=  0.3388   gamma=  904.68 GHz
     lambda(    7)=  0.0760   gamma=  308.08 GHz
     lambda(    8)=  0.0777   gamma=  315.02 GHz
     lambda(    9)=  0.0265   gamma=  122.42 GHz
     lambda(   10)=  0.0339   gamma=  163.75 GHz
     lambda(   11)=  0.0334   gamma=  161.35 GHz
     lambda(   12)=  0.0332   gamma=  225.34 GHz
     lambda(   13)=  0.0332   gamma=  224.81 GHz
     lambda(   14)=  0.0799   gamma=  574.14 GHz
     lambda(   15)=  0.0819   gamma=  614.42 GHz
     lambda(   16)=  0.0105   gamma=   86.67 GHz
     lambda(   17)=  0.0356   gamma=  309.47 GHz
     lambda(   18)=  0.0227   gamma=  199.59 GHz
     lambda(   19)=  0.0229   gamma=  200.83 GHz
     lambda(   20)=  0.0311   gamma=  283.18 GHz
     lambda(   21)=  0.0311   gamma=  283.64 GHz
     lambda(   22)=  0.0486   gamma=  468.40 GHz
     lambda(   23)=  0.0485   gamma=  468.11 GHz
     lambda(   24)=  0.0778   gamma=  850.98 GHz
     lambda(   25)=  0.0778   gamma=  850.71 GHz
     lambda(   26)=  0.0225   gamma=  275.00 GHz
     lambda(   27)=  0.0161   gamma=  224.42 GHz
     lambda(   28)=  0.0168   gamma=  235.68 GHz
     lambda(   29)=  0.0167   gamma=  235.05 GHz
     lambda(   30)=  0.0123   gamma=  176.64 GHz
     lambda(   31)=  0.0124   gamma=  177.52 GHz
     lambda(   32)=  0.0110   gamma=  190.43 GHz
     lambda(   33)=  0.0109   gamma=  224.83 GHz
 
 
     Number of q in the star =    8
     List of q in the star:
          1   0.235702260   0.235702260  -0.235702260
          2   0.235702260  -0.235702260  -0.235702260
          3   0.235702260   0.235702260   0.235702260
          4  -0.235702260  -0.235702260   0.235702260
          5  -0.235702260   0.235702260  -0.235702260
          6  -0.235702260  -0.235702260  -0.235702260
          7  -0.235702260   0.235702260   0.235702260
          8   0.235702260  -0.235702260   0.235702260
 
     init_run     :      0.44s CPU      0.74s WALL (       1 calls)
     electrons    :     14.45s CPU     18.63s WALL (       1 calls)

     Called by init_run:
     wfcinit      :      0.00s CPU      0.16s WALL (       1 calls)
     potinit      :      0.21s CPU      0.32s WALL (       1 calls)
     hinit0       :      0.10s CPU      0.11s WALL (       1 calls)

     Called by electrons:
     c_bands      :     14.45s CPU     18.63s WALL (       1 calls)
     v_of_rho     :      0.02s CPU      0.04s WALL (       2 calls)
     newd         :      0.04s CPU      0.08s WALL (       2 calls)
     PAW_pot      :      0.41s CPU      0.47s WALL (       2 calls)

     Called by c_bands:
     init_us_2    :      2.23s CPU      2.60s WALL (   24388 calls)
     cegterg      :      8.13s CPU      8.61s WALL (     305 calls)

     Called by *egterg:
     cdiaghg      :      2.57s CPU      2.73s WALL (    4922 calls)
     h_psi        :    597.26s CPU    767.79s WALL (  447803 calls)
     s_psi        :     19.51s CPU     21.24s WALL (  915313 calls)
     g_psi        :      0.03s CPU      0.03s WALL (    4740 calls)

     Called by h_psi:
     h_psi:calbec :     13.34s CPU     14.49s WALL (  447803 calls)
     vloc_psi     :    570.31s CPU    738.53s WALL (  447803 calls)
     add_vuspsi   :     10.04s CPU     10.94s WALL (  447803 calls)

     General routines
     calbec       :     62.00s CPU     65.02s WALL (  956536 calls)
     fft          :      1.93s CPU      2.56s WALL (    5875 calls)
     ffts         :     53.34s CPU     84.03s WALL (    4345 calls)
     fftw         :    891.13s CPU   1267.69s WALL ( 7821014 calls)
     interpolate  :      0.88s CPU      1.25s WALL (     583 calls)
     davcio       :     10.69s CPU    565.96s WALL (  125935 calls)
 
     Parallel routines
 
     PHONON       :  37m21.64s CPU  58m 3.52s WALL

     INITIALIZATION: 
     phq_setup    :      0.03s CPU      0.08s WALL (       1 calls)
     phq_init     :     19.72s CPU     23.73s WALL (       1 calls)
 
     phq_init     :     19.72s CPU     23.73s WALL (       1 calls)
     set_drhoc    :      0.00s CPU      0.00s WALL (       3 calls)
     init_vloc    :      0.01s CPU      0.02s WALL (       2 calls)
     init_us_1    :      0.15s CPU      0.22s WALL (       2 calls)
     init_us_2    :      2.23s CPU      2.60s WALL (   24388 calls)
     newd         :      0.04s CPU      0.08s WALL (       2 calls)
     dvanqq       :      1.80s CPU      1.81s WALL (       1 calls)
     drho         :     12.12s CPU     15.13s WALL (       1 calls)
     drhous       :      5.00s CPU      6.45s WALL (       1 calls)
     nldyntot     :      0.32s CPU      0.33s WALL (       1 calls)
 
     DYNAMICAL MATRIX:
     dynmat0      :      3.41s CPU      3.94s WALL (       1 calls)
     dynmat_us    :      3.36s CPU      3.86s WALL (       1 calls)
     addusdynmat  :      0.00s CPU      0.00s WALL (       1 calls)
     d2ionq       :      0.04s CPU      0.05s WALL (       1 calls)
     dynmatcc     :      0.01s CPU      0.01s WALL (       1 calls)
     phqscf       :   2178.74s CPU   3403.43s WALL (       1 calls)
     dynmatrix    :      0.31s CPU      0.34s WALL (       1 calls)
 
     phqscf       :   2178.74s CPU   3403.43s WALL (       1 calls)
     solve_linter :   2146.83s CPU   3346.12s WALL (      22 calls)
     sth_kernel   :   1682.13s CPU   2464.28s WALL (     196 calls)
     h_prec       :    438.73s CPU    446.11s WALL (   17836 calls)
     apply_dpot_b :    207.44s CPU    324.37s WALL (   24934 calls)
     ortho        :     38.16s CPU     39.19s WALL (   24934 calls)
     cgsolve      :    651.20s CPU    826.57s WALL (   24934 calls)
     incdrhoscf   :    190.26s CPU    288.53s WALL (   24934 calls)
                                        0.00s GPU  (   24934 calls)
     addusddens   :     21.80s CPU     29.74s WALL (     218 calls)
     vpsifft      :     40.89s CPU     65.87s WALL (    3003 calls)
     dv_of_drho   :      2.46s CPU      2.80s WALL (     274 calls)
     mix_pot      :     41.92s CPU    145.60s WALL (     196 calls)
     drhodv       :     31.87s CPU     42.44s WALL (      22 calls)
     psymdvscf    :     32.49s CPU     33.09s WALL (     196 calls)
     newdq        :     24.27s CPU     24.56s WALL (     196 calls)
     adddvscf     :      3.08s CPU      3.40s WALL (   24934 calls)
     com_dvloc    :     52.83s CPU     83.23s WALL (    3762 calls)
                                        0.00s GPU  (    3762 calls)
     addcore      :      0.44s CPU      0.54s WALL (    1396 calls)
                                        0.00s GPU  (    1396 calls)
     drhodvus     :     11.10s CPU     32.60s WALL (      22 calls)
 
     dvqpsi_us    :     66.61s CPU     97.70s WALL (    3003 calls)
                                        0.00s GPU  (    3003 calls)
     dvqpsi_us_on :      9.53s CPU      9.66s WALL (    3003 calls)
 
     add_vuspsi   :     10.04s CPU     10.94s WALL (  447803 calls)
     addusdbec    :      1.63s CPU      1.76s WALL (   27937 calls)
 
     drhodvus     :     11.10s CPU     32.60s WALL (      22 calls)
 
      Electron-phonon coupling
     elphel       :     48.78s CPU    100.06s WALL (      22 calls)
     elphsum      :     26.98s CPU     27.38s WALL (       1 calls)
 
      General routines
     calbec       :     62.00s CPU     65.02s WALL (  956536 calls)
     fft          :      1.93s CPU      2.56s WALL (    5875 calls)
     ffts         :     53.34s CPU     84.03s WALL (    4345 calls)
     fftw         :    891.13s CPU   1267.69s WALL ( 7821014 calls)
     davcio       :     10.69s CPU    565.96s WALL (  125935 calls)
     write_rec    :      0.36s CPU    150.13s WALL (     218 calls)
 
      Additional routines
     ch_psi       :    642.52s CPU    817.03s WALL (  442576 calls)
     last         :     35.58s CPU     38.68s WALL (  442576 calls)
     Hesh         :      1.23s CPU      1.39s WALL (  442576 calls)
     ch_psi_all_k :     32.26s CPU     35.07s WALL (  442576 calls)
                                        0.00s GPU  (  442576 calls)
     ch_psi_calbe :     10.67s CPU     11.54s WALL (  442576 calls)
                                        0.00s GPU  (  442576 calls)
     h_psi_bgrp   :    598.19s CPU    768.76s WALL (  447803 calls)
     h_psi        :    597.26s CPU    767.79s WALL (  447803 calls)
     h_psi:pot    :    595.69s CPU    766.05s WALL (  447803 calls)
     h_psi:calbec :     13.34s CPU     14.49s WALL (  447803 calls)
     s_psi_bgrp   :     22.48s CPU     24.43s WALL (  915313 calls)
     s_psi        :     19.51s CPU     21.24s WALL (  915313 calls)
 
 
     PHONON       :  37m21.64s CPU  58m 3.52s WALL

 
   This run was terminated on:  13:51:30  22Oct2025            

=------------------------------------------------------------------------------=
   JOB DONE.
=------------------------------------------------------------------------------=
