
     Program PHONON v.7.4.1 starts on 22Oct2025 at 13:52:49 

     This program is part of the open-source Quantum ESPRESSO suite
     for quantum simulation of materials; please cite
         "P. Giannozzi et al., J. Phys.:Condens. Matter 21 395502 (2009);
         "P. Giannozzi et al., J. Phys.:Condens. Matter 29 465901 (2017);
         "P. Giannozzi et al., J. Chem. Phys. 152 154105 (2020);
          URL http://www.quantum-espresso.org", 
     in publications or presentations arising from this work. More details at
     http://www.quantum-espresso.org/quote

     Parallel version (MPI), running on    48 processors

     MPI processes distributed on     1 nodes
     180841 MiB available memory on the printing compute node when the environment starts
 
     Waiting for input...
     Reading input from standard input

     Reading xml data from directory:

     ./tmp/La1H10.save/
 
     K-points division:     npool     =       4
     R & G space division:  proc/nbgrp/npool/nimage =      12
     Subspace diagonalization in iterative solution of the eigenvalue problem:
     a serial algorithm will be used

     file La.pbe-spfn-kjpaw_psl.1.0.0.UPF: wavefunction(s)  5S 5D 4F renormalized
     file H.pbe-kjpaw_psl.1.0.0.UPF: wavefunction(s)  1S renormalized

     IMPORTANT: XC functional enforced from input :
     Exchange-correlation= PBE
                           (   1   4   3   4   0   0   0)
     Any further DFT definition will be discarded
     Please, verify this is what you really want

 
     Parallelization info
     --------------------
     sticks:   dense  smooth     PW     G-vecs:    dense   smooth      PW
     Min         231      77     23                 8029     1540     259
     Max         232      78     24                 8031     1543     261
     Sum        2773     925    283                96353    18499    3119
 
     Using Slab Decomposition
 
     Reading collected, re-writing distributed wavefunctions in ./tmp/


     Dynamical matrices for ( 6, 6, 6)  uniform grid of q-points
     (  16 q-points):
       N         xq(1)         xq(2)         xq(3) 
       1   0.000000000   0.000000000   0.000000000
       2   0.117851130   0.117851130  -0.117851130
       3   0.235702260   0.235702260  -0.235702260
       4  -0.353553391  -0.353553391   0.353553391
       5   0.235702260   0.000000000   0.000000000
       6   0.353553391   0.117851130  -0.117851130
       7  -0.235702260  -0.471404521   0.471404521
       8  -0.117851130  -0.353553391   0.353553391
       9   0.000000000  -0.235702260   0.235702260
      10   0.471404521   0.000000000   0.000000000
      11  -0.117851130  -0.589255651   0.589255651
      12  -0.000000000  -0.471404521   0.471404521
      13  -0.707106781   0.000000000   0.000000000
      14  -0.235702260  -0.471404521   0.707106781
      15  -0.117851130  -0.353553391   0.589255651
      16  -0.707106781   0.235702260   0.000000000

     Number and degeneracy of irreps per q-point
       N         xq(1)         xq(2)         xq(3)   N irreps
       1   0.000000000   0.000000000   0.000000000      13
        1   2   3   3   3   3   1   2   3   3   3   3   3
       2   0.117851130   0.117851130  -0.117851130      22
        1   1   1   1   1   1   1   1   1   1   1   2   2   2   2   2   2   2
   2   2   2   2
       3   0.235702260   0.235702260  -0.235702260      22
        1   1   1   1   1   1   1   1   1   1   1   2   2   2   2   2   2   2
   2   2   2   2
       4  -0.353553391  -0.353553391   0.353553391      22
        1   1   1   1   1   2   2   2   2   2   1   1   1   1   1   1   2   2
   2   2   2   2
       5   0.235702260   0.000000000   0.000000000      24
        1   1   1   1   1   1   1   1   1   1   1   1   1   1   1   2   2   2
   2   2   2   2   2   2
       6   0.353553391   0.117851130  -0.117851130      33
     No degeneracy
       7  -0.235702260  -0.471404521   0.471404521      33
     No degeneracy
       8  -0.117851130  -0.353553391   0.353553391      33
     No degeneracy
       9   0.000000000  -0.235702260   0.235702260      33
     No degeneracy
      10   0.471404521   0.000000000   0.000000000      24
        1   1   1   1   1   1   1   1   1   1   1   1   1   1   1   2   2   2
   2   2   2   2   2   2
      11  -0.117851130  -0.589255651   0.589255651      33
     No degeneracy
      12  -0.000000000  -0.471404521   0.471404521      33
     No degeneracy
      13  -0.707106781   0.000000000   0.000000000      24
        1   1   1   1   1   1   1   2   2   2   2   1   1   1   1   1   1   1
   1   2   2   2   2   2
      14  -0.235702260  -0.471404521   0.707106781      33
     No degeneracy
      15  -0.117851130  -0.353553391   0.589255651      33
     No degeneracy
Eigenvectors exchange needed    7   16
      16  -0.707106781   0.235702260   0.000000000      32
        1   1   1   1   1   1   2   1   1   1   1   1   1   1   1   1   1   1
   1   1   1   1   1   1   1   1   1   1   1   1   1   1

     Saving dvscf to file. Distribute only q points, not irreducible representations.

     Calculation of q =    0.3535534   0.1178511  -0.1178511
 
     Parallelization info
     --------------------
     sticks:   dense  smooth     PW     G-vecs:    dense   smooth      PW
     Min         231      77     25                 8029     1540     289
     Max         232      78     26                 8031     1543     292
     Sum        2773     925    301                96353    18499    3479
 
     Using Slab Decomposition
 

     Title: 
     Electron-phonon coefficients for La1H10                                    


     bravais-lattice index     =            0
     lattice parameter (alat)  =       6.4716  a.u.
     unit-cell volume          =     191.6541 (a.u.)^3
     number of atoms/cell      =           11
     number of atomic types    =            2
     number of electrons       =        21.00
     number of Kohn-Sham states=           15
     kinetic-energy cutoff     =      80.0000  Ry
     charge density cutoff     =     960.0000  Ry
     Exchange-correlation= PBE
                           (   1   4   3   4   0   0   0)

     celldm(1)=   6.471590  celldm(2)=   0.000000  celldm(3)=   0.000000
     celldm(4)=   0.000000  celldm(5)=   0.000000  celldm(6)=   0.000000

     crystal axes: (cart. coord. in units of alat)
               a(1) = (   0.000000   0.707107   0.707107 )  
               a(2) = (   0.707107   0.000000   0.707107 )  
               a(3) = (   0.707107   0.707107   0.000000 )  

     reciprocal axes: (cart. coord. in units 2 pi/alat)
               b(1) = ( -0.707107  0.707107  0.707107 )  
               b(2) = (  0.707107 -0.707107  0.707107 )  
               b(3) = (  0.707107  0.707107 -0.707107 )  


     PseudoPot. # 1 for La read from file:
     /work/home/mayuan/workplace/1.typical_hydride/003.MH10/1.LaH10/250/Tc-666-paw/pp/La.pbe-spfn-kjpaw_psl.1.0.0.UPF
     MD5 check sum: ccc10218a00d76b68822f6b8f5772390
     Pseudo is Projector augmented-wave + core cor, Zval = 11.0
     Generated using 'atomic' code by A. Dal Corso  v.7.1
     Shape of augmentation charge: PSQ
     Using radial grid of 1253 points,  8 beta functions with: 
                l(1) =   0
                l(2) =   0
                l(3) =   1
                l(4) =   1
                l(5) =   2
                l(6) =   2
                l(7) =   3
                l(8) =   3
     Q(r) pseudized with 0 coefficients 


     PseudoPot. # 2 for H  read from file:
     /work/home/mayuan/workplace/1.typical_hydride/003.MH10/1.LaH10/250/Tc-666-paw/pp/H.pbe-kjpaw_psl.1.0.0.UPF
     MD5 check sum: 3bb27c602ede137025941d095c9090b7
     Pseudo is Projector augmented-wave, Zval =  1.0
     Generated using 'atomic' code by A. Dal Corso  v.7.1
     Shape of augmentation charge: PSQ
     Using radial grid of  929 points,  2 beta functions with: 
                l(1) =   0
                l(2) =   0
     Q(r) pseudized with 0 coefficients 


     atomic species   valence    mass     pseudopotential
     La               11.00   138.90547     La( 1.00)
     H                 1.00     1.00794     H ( 1.00)

     48 Sym. Ops., with inversion, found



   Cartesian axes

     site n.     atom                  positions (alat units)
         1        La     tau(   1) = (   0.0000000   0.0000000   0.0000000  )
         2        H      tau(   2) = (   0.3535534   0.3535534   0.3535534  )
         3        H      tau(   3) = (   1.0606602   1.0606602   1.0606602  )
         4        H      tau(   4) = (   0.8776866   0.8776866   0.8776866  )
         5        H      tau(   5) = (   0.5365270   0.5365270   0.5365270  )
         6        H      tau(   6) = (   0.5365270   0.5365270   0.8776866  )
         7        H      tau(   7) = (   0.8776866   0.8776866   0.5365270  )
         8        H      tau(   8) = (   0.5365270   0.8776866   0.5365270  )
         9        H      tau(   9) = (   0.8776866   0.5365270   0.8776866  )
        10        H      tau(  10) = (   0.8776866   0.5365270   0.5365270  )
        11        H      tau(  11) = (   0.5365270   0.8776866   0.8776866  )

     number of k points=  1872  Gaussian smearing, width (Ry)=  0.0200

     Number of k-points >= 100: set verbosity='high' to print them.

     Dense  grid:    96353 G-vectors     FFT dimensions: (  64,  64,  64)

     Smooth grid:    18499 G-vectors     FFT dimensions: (  40,  40,  40)

     Estimated max dynamical RAM per process >      32.63 MB

     Estimated total dynamical RAM >       1.53 GB

     The potential is recalculated from file :
     ./tmp/_ph0/La1H10.q_6/La1H10.save/charge-density

     Starting wfcs are   30 atomic wfcs
     Checking if some PAW data can be deallocated... 

     Band Structure Calculation
     Davidson diagonalization with overlap

     ethr =  4.76E-11,  avg # of iterations = 30.6

     total cpu time spent up to now is       48.2 secs

     End of band structure calculation

     Number of k-points >= 100: set verbosity='high' to print the bands.

     the Fermi energy is    20.4236 ev

     Writing config to output data dir ./tmp/_ph0/La1H10.q_6/La1H10.save/ :
     XML data file

     Electron-phonon coefficients for La1H10                                    

     bravais-lattice index     =            0
     lattice parameter (alat)  =       6.4716  a.u.
     unit-cell volume          =     191.6541 (a.u.)^3
     number of atoms/cell      =           11
     number of atomic types    =            2
     kinetic-energy cut-off    =      80.0000  Ry
     charge density cut-off    =     960.0000  Ry
     convergence threshold     =      1.0E-14
     beta                      =       0.3000
     number of iterations used =            4
     Exchange-correlation= PBE
                           (   1   4   3   4   0   0   0)


     celldm(1)=    6.47159  celldm(2)=    0.00000  celldm(3)=    0.00000
     celldm(4)=    0.00000  celldm(5)=    0.00000  celldm(6)=    0.00000

     crystal axes: (cart. coord. in units of alat)
               a(1) = (  0.0000  0.7071  0.7071 )  
               a(2) = (  0.7071  0.0000  0.7071 )  
               a(3) = (  0.7071  0.7071  0.0000 )  

     reciprocal axes: (cart. coord. in units 2 pi/alat)
               b(1) = ( -0.7071  0.7071  0.7071 )  
               b(2) = (  0.7071 -0.7071  0.7071 )  
               b(3) = (  0.7071  0.7071 -0.7071 )  


     Atoms inside the unit cell: 

     Cartesian axes

     site n.  atom      mass           positions (alat units)
        1  La    138.9055   tau(    1) = (    0.00000    0.00000    0.00000  )
        2  H       1.0079   tau(    2) = (    0.35355    0.35355    0.35355  )
        3  H       1.0079   tau(    3) = (    1.06066    1.06066    1.06066  )
        4  H       1.0079   tau(    4) = (    0.87769    0.87769    0.87769  )
        5  H       1.0079   tau(    5) = (    0.53653    0.53653    0.53653  )
        6  H       1.0079   tau(    6) = (    0.53653    0.53653    0.87769  )
        7  H       1.0079   tau(    7) = (    0.87769    0.87769    0.53653  )
        8  H       1.0079   tau(    8) = (    0.53653    0.87769    0.53653  )
        9  H       1.0079   tau(    9) = (    0.87769    0.53653    0.87769  )
       10  H       1.0079   tau(   10) = (    0.87769    0.53653    0.53653  )
       11  H       1.0079   tau(   11) = (    0.53653    0.87769    0.87769  )

     Computing dynamical matrix for 
                    q = (   0.3535534   0.1178511  -0.1178511 )
 
      2 Sym.Ops. (no q -> -q+G )


     G cutoff = 1018.4355  (   8029 G-vectors)     FFT grid: ( 64, 64, 64)
     G cutoff =  339.4785  (   1542 G-vectors)  smooth grid: ( 40, 40, 40)

     number of k points=  1872  Gaussian smearing, width (Ry)=  0.0200

     PseudoPot. # 1 for La read from file:
     /work/home/mayuan/workplace/1.typical_hydride/003.MH10/1.LaH10/250/Tc-666-paw/pp/La.pbe-spfn-kjpaw_psl.1.0.0.UPF
     MD5 check sum: ccc10218a00d76b68822f6b8f5772390
     Pseudo is Projector augmented-wave + core cor, Zval = 11.0
     Generated using 'atomic' code by A. Dal Corso  v.7.1
     Shape of augmentation charge: PSQ
     Using radial grid of 1253 points,  8 beta functions with: 
                l(1) =   0
                l(2) =   0
                l(3) =   1
                l(4) =   1
                l(5) =   2
                l(6) =   2
                l(7) =   3
                l(8) =   3
     Q(r) pseudized with 0 coefficients 


     PseudoPot. # 2 for H  read from file:
     /work/home/mayuan/workplace/1.typical_hydride/003.MH10/1.LaH10/250/Tc-666-paw/pp/H.pbe-kjpaw_psl.1.0.0.UPF
     MD5 check sum: 3bb27c602ede137025941d095c9090b7
     Pseudo is Projector augmented-wave, Zval =  1.0
     Generated using 'atomic' code by A. Dal Corso  v.7.1
     Shape of augmentation charge: PSQ
     Using radial grid of  929 points,  2 beta functions with: 
                l(1) =   0
                l(2) =   0
     Q(r) pseudized with 0 coefficients 


     Mode symmetry, C_s (m)     point group:


     Atomic displacements:
     There are   33 irreducible representations

     Representation     1      1 modes -  To be done

     Representation     2      1 modes -  To be done

     Representation     3      1 modes -  To be done

     Representation     4      1 modes -  To be done

     Representation     5      1 modes -  To be done

     Representation     6      1 modes -  To be done

     Representation     7      1 modes -  To be done

     Representation     8      1 modes -  To be done

     Representation     9      1 modes -  To be done

     Representation    10      1 modes -  To be done

     Representation    11      1 modes -  To be done

     Representation    12      1 modes -  To be done

     Representation    13      1 modes -  To be done

     Representation    14      1 modes -  To be done

     Representation    15      1 modes -  To be done

     Representation    16      1 modes -  To be done

     Representation    17      1 modes -  To be done

     Representation    18      1 modes -  To be done

     Representation    19      1 modes -  To be done

     Representation    20      1 modes -  To be done

     Representation    21      1 modes -  To be done

     Representation    22      1 modes -  To be done

     Representation    23      1 modes -  To be done

     Representation    24      1 modes -  To be done

     Representation    25      1 modes -  To be done

     Representation    26      1 modes -  To be done

     Representation    27      1 modes -  To be done

     Representation    28      1 modes -  To be done

     Representation    29      1 modes -  To be done

     Representation    30      1 modes -  To be done

     Representation    31      1 modes -  To be done

     Representation    32      1 modes -  To be done

     Representation    33      1 modes -  To be done


     Message from routine init_vloc:
     Interpolation table for Vloc re-allocated

     Alpha used in Ewald sum =   2.8000
     PHONON       :   1m18.27s CPU   1m39.54s WALL



     Representation #   1 mode #   1

     Self-consistent Calculation

      iter #   1 total cpu time :   127.1 secs   av.it.:   5.1
      thresh= 1.000E-02 alpha_mix =  0.300 |ddv_scf|^2 =  6.102E-06

      iter #   2 total cpu time :   165.9 secs   av.it.:  10.7
      thresh= 2.470E-04 alpha_mix =  0.300 |ddv_scf|^2 =  3.494E-05

      iter #   3 total cpu time :   194.9 secs   av.it.:   8.9
      thresh= 5.911E-04 alpha_mix =  0.300 |ddv_scf|^2 =  3.709E-09

      iter #   4 total cpu time :   228.1 secs   av.it.:  11.9
      thresh= 6.090E-06 alpha_mix =  0.300 |ddv_scf|^2 =  6.151E-10

      iter #   5 total cpu time :   263.0 secs   av.it.:  12.4
      thresh= 2.480E-06 alpha_mix =  0.300 |ddv_scf|^2 =  5.152E-11

      iter #   6 total cpu time :   291.5 secs   av.it.:  12.3
      thresh= 7.177E-07 alpha_mix =  0.300 |ddv_scf|^2 =  2.713E-11

      iter #   7 total cpu time :   326.1 secs   av.it.:  10.1
      thresh= 5.209E-07 alpha_mix =  0.300 |ddv_scf|^2 =  1.207E-11

      iter #   8 total cpu time :   358.2 secs   av.it.:  11.3
      thresh= 3.475E-07 alpha_mix =  0.300 |ddv_scf|^2 =  1.508E-12

      iter #   9 total cpu time :   391.7 secs   av.it.:  11.1
      thresh= 1.228E-07 alpha_mix =  0.300 |ddv_scf|^2 =  2.626E-12

      iter #  10 total cpu time :   421.2 secs   av.it.:  11.0
      thresh= 1.620E-07 alpha_mix =  0.300 |ddv_scf|^2 =  5.368E-14

      iter #  11 total cpu time :   452.0 secs   av.it.:  11.9
      thresh= 2.317E-08 alpha_mix =  0.300 |ddv_scf|^2 =  1.205E-14

      iter #  12 total cpu time :   481.4 secs   av.it.:  12.1
      thresh= 1.098E-08 alpha_mix =  0.300 |ddv_scf|^2 =  2.693E-15

     End of self-consistent calculation

     Convergence has been achieved 


     Representation #   2 mode #   2

     Self-consistent Calculation

      iter #   1 total cpu time :   520.0 secs   av.it.:   5.0
      thresh= 1.000E-02 alpha_mix =  0.300 |ddv_scf|^2 =  3.236E-06

      iter #   2 total cpu time :   545.5 secs   av.it.:  10.8
      thresh= 1.799E-04 alpha_mix =  0.300 |ddv_scf|^2 =  1.851E-05

      iter #   3 total cpu time :   573.1 secs   av.it.:   8.9
      thresh= 4.302E-04 alpha_mix =  0.300 |ddv_scf|^2 =  4.225E-09

      iter #   4 total cpu time :   603.3 secs   av.it.:  12.1
      thresh= 6.500E-06 alpha_mix =  0.300 |ddv_scf|^2 =  4.298E-10

      iter #   5 total cpu time :   632.9 secs   av.it.:  12.2
      thresh= 2.073E-06 alpha_mix =  0.300 |ddv_scf|^2 =  5.391E-11

      iter #   6 total cpu time :   664.8 secs   av.it.:  12.5
      thresh= 7.342E-07 alpha_mix =  0.300 |ddv_scf|^2 =  5.016E-12

      iter #   7 total cpu time :   696.8 secs   av.it.:  12.3
      thresh= 2.240E-07 alpha_mix =  0.300 |ddv_scf|^2 =  1.927E-12

      iter #   8 total cpu time :   730.5 secs   av.it.:  11.1
      thresh= 1.388E-07 alpha_mix =  0.300 |ddv_scf|^2 =  2.067E-12

      iter #   9 total cpu time :   761.9 secs   av.it.:  10.6
      thresh= 1.438E-07 alpha_mix =  0.300 |ddv_scf|^2 =  5.943E-13

      iter #  10 total cpu time :   798.4 secs   av.it.:  10.7
      thresh= 7.709E-08 alpha_mix =  0.300 |ddv_scf|^2 =  4.345E-14

      iter #  11 total cpu time :   833.8 secs   av.it.:  12.1
      thresh= 2.084E-08 alpha_mix =  0.300 |ddv_scf|^2 =  6.062E-15

     End of self-consistent calculation

     Convergence has been achieved 


     Representation #   3 mode #   3

     Self-consistent Calculation

      iter #   1 total cpu time :   877.9 secs   av.it.:   8.1
      thresh= 1.000E-02 alpha_mix =  0.300 |ddv_scf|^2 =  8.961E-04

      iter #   2 total cpu time :   907.1 secs   av.it.:  10.6
      thresh= 2.993E-03 alpha_mix =  0.300 |ddv_scf|^2 =  5.155E-03

      iter #   3 total cpu time :   936.3 secs   av.it.:   8.9
      thresh= 7.179E-03 alpha_mix =  0.300 |ddv_scf|^2 =  1.399E-07

      iter #   4 total cpu time :   966.3 secs   av.it.:  11.5
      thresh= 3.741E-05 alpha_mix =  0.300 |ddv_scf|^2 =  3.220E-08

      iter #   5 total cpu time :   997.1 secs   av.it.:  12.3
      thresh= 1.794E-05 alpha_mix =  0.300 |ddv_scf|^2 =  3.837E-09

      iter #   6 total cpu time :  1033.4 secs   av.it.:  12.3
      thresh= 6.195E-06 alpha_mix =  0.300 |ddv_scf|^2 =  2.571E-10

      iter #   7 total cpu time :  1064.8 secs   av.it.:  12.0
      thresh= 1.603E-06 alpha_mix =  0.300 |ddv_scf|^2 =  2.055E-11

      iter #   8 total cpu time :  1097.5 secs   av.it.:  12.1
      thresh= 4.533E-07 alpha_mix =  0.300 |ddv_scf|^2 =  3.708E-12

      iter #   9 total cpu time :  1131.6 secs   av.it.:  11.8
      thresh= 1.926E-07 alpha_mix =  0.300 |ddv_scf|^2 =  5.316E-12

      iter #  10 total cpu time :  1165.4 secs   av.it.:   9.8
      thresh= 2.306E-07 alpha_mix =  0.300 |ddv_scf|^2 =  1.002E-12

      iter #  11 total cpu time :  1198.2 secs   av.it.:  10.7
      thresh= 1.001E-07 alpha_mix =  0.300 |ddv_scf|^2 =  7.397E-13

      iter #  12 total cpu time :  1232.4 secs   av.it.:  11.0
      thresh= 8.600E-08 alpha_mix =  0.300 |ddv_scf|^2 =  1.357E-14

      iter #  13 total cpu time :  1262.2 secs   av.it.:  12.3
      thresh= 1.165E-08 alpha_mix =  0.300 |ddv_scf|^2 =  2.371E-15

     End of self-consistent calculation

     Convergence has been achieved 


     Representation #   4 mode #   4

     Self-consistent Calculation

      iter #   1 total cpu time :  1302.6 secs   av.it.:   5.3
      thresh= 1.000E-02 alpha_mix =  0.300 |ddv_scf|^2 =  8.801E-06

      iter #   2 total cpu time :  1329.5 secs   av.it.:  10.7
      thresh= 2.967E-04 alpha_mix =  0.300 |ddv_scf|^2 =  5.010E-05

      iter #   3 total cpu time :  1354.8 secs   av.it.:   8.9
      thresh= 7.078E-04 alpha_mix =  0.300 |ddv_scf|^2 =  5.669E-09

      iter #   4 total cpu time :  1385.0 secs   av.it.:  11.8
      thresh= 7.529E-06 alpha_mix =  0.300 |ddv_scf|^2 =  7.412E-10

      iter #   5 total cpu time :  1418.0 secs   av.it.:  12.3
      thresh= 2.722E-06 alpha_mix =  0.300 |ddv_scf|^2 =  6.153E-11

      iter #   6 total cpu time :  1448.5 secs   av.it.:  12.4
      thresh= 7.844E-07 alpha_mix =  0.300 |ddv_scf|^2 =  3.129E-11

      iter #   7 total cpu time :  1481.2 secs   av.it.:  10.2
      thresh= 5.594E-07 alpha_mix =  0.300 |ddv_scf|^2 =  2.127E-11

      iter #   8 total cpu time :  1512.4 secs   av.it.:  11.3
      thresh= 4.612E-07 alpha_mix =  0.300 |ddv_scf|^2 =  9.258E-13

      iter #   9 total cpu time :  1542.3 secs   av.it.:  11.8
      thresh= 9.622E-08 alpha_mix =  0.300 |ddv_scf|^2 =  2.065E-12

      iter #  10 total cpu time :  1573.4 secs   av.it.:  10.6
      thresh= 1.437E-07 alpha_mix =  0.300 |ddv_scf|^2 =  7.157E-14

      iter #  11 total cpu time :  1605.4 secs   av.it.:  11.9
      thresh= 2.675E-08 alpha_mix =  0.300 |ddv_scf|^2 =  9.671E-15

     End of self-consistent calculation

     Convergence has been achieved 


     Representation #   5 mode #   5

     Self-consistent Calculation

      iter #   1 total cpu time :  1653.6 secs   av.it.:   5.1
      thresh= 1.000E-02 alpha_mix =  0.300 |ddv_scf|^2 =  5.505E-06

      iter #   2 total cpu time :  1682.4 secs   av.it.:  10.7
      thresh= 2.346E-04 alpha_mix =  0.300 |ddv_scf|^2 =  3.162E-05

      iter #   3 total cpu time :  1705.9 secs   av.it.:   8.9
      thresh= 5.623E-04 alpha_mix =  0.300 |ddv_scf|^2 =  3.804E-09

      iter #   4 total cpu time :  1738.0 secs   av.it.:  12.0
      thresh= 6.168E-06 alpha_mix =  0.300 |ddv_scf|^2 =  5.115E-10

      iter #   5 total cpu time :  1763.9 secs   av.it.:  12.3
      thresh= 2.262E-06 alpha_mix =  0.300 |ddv_scf|^2 =  5.297E-11

      iter #   6 total cpu time :  1791.8 secs   av.it.:  12.3
      thresh= 7.278E-07 alpha_mix =  0.300 |ddv_scf|^2 =  6.728E-12

      iter #   7 total cpu time :  1819.8 secs   av.it.:  11.7
      thresh= 2.594E-07 alpha_mix =  0.300 |ddv_scf|^2 =  1.357E-11

      iter #   8 total cpu time :  1846.9 secs   av.it.:  10.4
      thresh= 3.683E-07 alpha_mix =  0.300 |ddv_scf|^2 =  1.776E-12

      iter #   9 total cpu time :  1876.0 secs   av.it.:  10.5
      thresh= 1.333E-07 alpha_mix =  0.300 |ddv_scf|^2 =  1.676E-12

      iter #  10 total cpu time :  1906.7 secs   av.it.:  11.1
      thresh= 1.295E-07 alpha_mix =  0.300 |ddv_scf|^2 =  3.803E-14

      iter #  11 total cpu time :  1939.1 secs   av.it.:  12.1
      thresh= 1.950E-08 alpha_mix =  0.300 |ddv_scf|^2 =  7.549E-15

     End of self-consistent calculation

     Convergence has been achieved 


     Representation #   6 mode #   6

     Self-consistent Calculation

      iter #   1 total cpu time :  1986.7 secs   av.it.:   5.1
      thresh= 1.000E-02 alpha_mix =  0.300 |ddv_scf|^2 =  8.630E-06

      iter #   2 total cpu time :  2015.0 secs   av.it.:  10.7
      thresh= 2.938E-04 alpha_mix =  0.300 |ddv_scf|^2 =  4.957E-05

      iter #   3 total cpu time :  2041.9 secs   av.it.:   8.9
      thresh= 7.041E-04 alpha_mix =  0.300 |ddv_scf|^2 =  3.606E-09

      iter #   4 total cpu time :  2069.0 secs   av.it.:  11.8
      thresh= 6.005E-06 alpha_mix =  0.300 |ddv_scf|^2 =  5.689E-10

      iter #   5 total cpu time :  2102.5 secs   av.it.:  12.2
      thresh= 2.385E-06 alpha_mix =  0.300 |ddv_scf|^2 =  6.183E-11

      iter #   6 total cpu time :  2132.6 secs   av.it.:  12.3
      thresh= 7.863E-07 alpha_mix =  0.300 |ddv_scf|^2 =  1.275E-11

      iter #   7 total cpu time :  2165.8 secs   av.it.:  10.8
      thresh= 3.571E-07 alpha_mix =  0.300 |ddv_scf|^2 =  1.703E-11

      iter #   8 total cpu time :  2197.6 secs   av.it.:  10.6
      thresh= 4.127E-07 alpha_mix =  0.300 |ddv_scf|^2 =  1.771E-12

      iter #   9 total cpu time :  2228.4 secs   av.it.:  11.2
      thresh= 1.331E-07 alpha_mix =  0.300 |ddv_scf|^2 =  2.839E-12

      iter #  10 total cpu time :  2260.3 secs   av.it.:  10.9
      thresh= 1.685E-07 alpha_mix =  0.300 |ddv_scf|^2 =  5.715E-14

      iter #  11 total cpu time :  2291.9 secs   av.it.:  11.8
      thresh= 2.391E-08 alpha_mix =  0.300 |ddv_scf|^2 =  1.213E-14

      iter #  12 total cpu time :  2329.8 secs   av.it.:  12.1
      thresh= 1.101E-08 alpha_mix =  0.300 |ddv_scf|^2 =  2.397E-15

     End of self-consistent calculation

     Convergence has been achieved 


     Representation #   7 mode #   7

     Self-consistent Calculation

      iter #   1 total cpu time :  2376.7 secs   av.it.:   5.3
      thresh= 1.000E-02 alpha_mix =  0.300 |ddv_scf|^2 =  8.945E-06

      iter #   2 total cpu time :  2408.6 secs   av.it.:  10.7
      thresh= 2.991E-04 alpha_mix =  0.300 |ddv_scf|^2 =  5.124E-05

      iter #   3 total cpu time :  2434.1 secs   av.it.:   8.9
      thresh= 7.158E-04 alpha_mix =  0.300 |ddv_scf|^2 =  6.366E-09

      iter #   4 total cpu time :  2463.7 secs   av.it.:  11.9
      thresh= 7.979E-06 alpha_mix =  0.300 |ddv_scf|^2 =  5.358E-10

      iter #   5 total cpu time :  2494.8 secs   av.it.:  12.0
      thresh= 2.315E-06 alpha_mix =  0.300 |ddv_scf|^2 =  7.766E-11

      iter #   6 total cpu time :  2525.7 secs   av.it.:  12.4
      thresh= 8.812E-07 alpha_mix =  0.300 |ddv_scf|^2 =  1.437E-11

      iter #   7 total cpu time :  2558.4 secs   av.it.:  10.8
      thresh= 3.791E-07 alpha_mix =  0.300 |ddv_scf|^2 =  1.681E-11

      iter #   8 total cpu time :  2589.4 secs   av.it.:  11.2
      thresh= 4.099E-07 alpha_mix =  0.300 |ddv_scf|^2 =  6.253E-13

      iter #   9 total cpu time :  2619.6 secs   av.it.:  12.0
      thresh= 7.908E-08 alpha_mix =  0.300 |ddv_scf|^2 =  3.997E-13

      iter #  10 total cpu time :  2650.2 secs   av.it.:  10.0
      thresh= 6.322E-08 alpha_mix =  0.300 |ddv_scf|^2 =  1.194E-13

      iter #  11 total cpu time :  2684.5 secs   av.it.:  11.7
      thresh= 3.456E-08 alpha_mix =  0.300 |ddv_scf|^2 =  6.138E-15

     End of self-consistent calculation

     Convergence has been achieved 


     Representation #   8 mode #   8

     Self-consistent Calculation

      iter #   1 total cpu time :  2729.9 secs   av.it.:   4.9
      thresh= 1.000E-02 alpha_mix =  0.300 |ddv_scf|^2 =  2.636E-06

      iter #   2 total cpu time :  2759.4 secs   av.it.:  10.8
      thresh= 1.624E-04 alpha_mix =  0.300 |ddv_scf|^2 =  1.487E-05

      iter #   3 total cpu time :  2787.2 secs   av.it.:   8.9
      thresh= 3.856E-04 alpha_mix =  0.300 |ddv_scf|^2 =  3.679E-09

      iter #   4 total cpu time :  2817.1 secs   av.it.:  11.8
      thresh= 6.066E-06 alpha_mix =  0.300 |ddv_scf|^2 =  5.394E-10

      iter #   5 total cpu time :  2849.0 secs   av.it.:  12.4
      thresh= 2.323E-06 alpha_mix =  0.300 |ddv_scf|^2 =  4.420E-11

      iter #   6 total cpu time :  2880.1 secs   av.it.:  12.3
      thresh= 6.648E-07 alpha_mix =  0.300 |ddv_scf|^2 =  1.776E-11

      iter #   7 total cpu time :  2915.0 secs   av.it.:  10.5
      thresh= 4.215E-07 alpha_mix =  0.300 |ddv_scf|^2 =  1.971E-11

      iter #   8 total cpu time :  2944.9 secs   av.it.:  11.0
      thresh= 4.440E-07 alpha_mix =  0.300 |ddv_scf|^2 =  9.852E-13

      iter #   9 total cpu time :  2976.2 secs   av.it.:  11.6
      thresh= 9.926E-08 alpha_mix =  0.300 |ddv_scf|^2 =  1.755E-12

      iter #  10 total cpu time :  3010.4 secs   av.it.:  10.7
      thresh= 1.325E-07 alpha_mix =  0.300 |ddv_scf|^2 =  5.412E-14

      iter #  11 total cpu time :  3042.2 secs   av.it.:  12.1
      thresh= 2.326E-08 alpha_mix =  0.300 |ddv_scf|^2 =  1.057E-14

      iter #  12 total cpu time :  3071.7 secs   av.it.:  12.2
      thresh= 1.028E-08 alpha_mix =  0.300 |ddv_scf|^2 =  2.481E-15

     End of self-consistent calculation

     Convergence has been achieved 


     Representation #   9 mode #   9

     Self-consistent Calculation

      iter #   1 total cpu time :  3122.3 secs   av.it.:   5.0
      thresh= 1.000E-02 alpha_mix =  0.300 |ddv_scf|^2 =  5.060E-06

      iter #   2 total cpu time :  3146.5 secs   av.it.:  10.7
      thresh= 2.250E-04 alpha_mix =  0.300 |ddv_scf|^2 =  2.898E-05

      iter #   3 total cpu time :  3173.0 secs   av.it.:   8.9
      thresh= 5.383E-04 alpha_mix =  0.300 |ddv_scf|^2 =  4.033E-09

      iter #   4 total cpu time :  3203.3 secs   av.it.:  11.9
      thresh= 6.350E-06 alpha_mix =  0.300 |ddv_scf|^2 =  5.719E-10

      iter #   5 total cpu time :  3234.4 secs   av.it.:  12.3
      thresh= 2.392E-06 alpha_mix =  0.300 |ddv_scf|^2 =  5.607E-11

      iter #   6 total cpu time :  3265.3 secs   av.it.:  12.4
      thresh= 7.488E-07 alpha_mix =  0.300 |ddv_scf|^2 =  6.225E-12

      iter #   7 total cpu time :  3295.3 secs   av.it.:  11.8
      thresh= 2.495E-07 alpha_mix =  0.300 |ddv_scf|^2 =  1.184E-11

      iter #   8 total cpu time :  3326.4 secs   av.it.:  10.3
      thresh= 3.441E-07 alpha_mix =  0.300 |ddv_scf|^2 =  8.798E-13

      iter #   9 total cpu time :  3356.7 secs   av.it.:  11.6
      thresh= 9.380E-08 alpha_mix =  0.300 |ddv_scf|^2 =  1.469E-12

      iter #  10 total cpu time :  3389.7 secs   av.it.:  10.6
      thresh= 1.212E-07 alpha_mix =  0.300 |ddv_scf|^2 =  3.918E-14

      iter #  11 total cpu time :  3425.5 secs   av.it.:  12.0
      thresh= 1.979E-08 alpha_mix =  0.300 |ddv_scf|^2 =  7.772E-15

     End of self-consistent calculation

     Convergence has been achieved 


     Representation #  10 mode #  10

     Self-consistent Calculation

      iter #   1 total cpu time :  3467.1 secs   av.it.:   5.4
      thresh= 1.000E-02 alpha_mix =  0.300 |ddv_scf|^2 =  1.020E-05

      iter #   2 total cpu time :  3495.2 secs   av.it.:  10.7
      thresh= 3.194E-04 alpha_mix =  0.300 |ddv_scf|^2 =  5.870E-05

      iter #   3 total cpu time :  3523.2 secs   av.it.:   8.9
      thresh= 7.661E-04 alpha_mix =  0.300 |ddv_scf|^2 =  5.844E-09

      iter #   4 total cpu time :  3550.8 secs   av.it.:  12.0
      thresh= 7.645E-06 alpha_mix =  0.300 |ddv_scf|^2 =  5.736E-10

      iter #   5 total cpu time :  3582.2 secs   av.it.:  12.2
      thresh= 2.395E-06 alpha_mix =  0.300 |ddv_scf|^2 =  7.200E-11

      iter #   6 total cpu time :  3612.4 secs   av.it.:  12.4
      thresh= 8.485E-07 alpha_mix =  0.300 |ddv_scf|^2 =  2.120E-11

      iter #   7 total cpu time :  3641.6 secs   av.it.:  10.4
      thresh= 4.604E-07 alpha_mix =  0.300 |ddv_scf|^2 =  1.049E-11

      iter #   8 total cpu time :  3672.2 secs   av.it.:  11.9
      thresh= 3.239E-07 alpha_mix =  0.300 |ddv_scf|^2 =  1.365E-12

      iter #   9 total cpu time :  3706.2 secs   av.it.:  11.1
      thresh= 1.168E-07 alpha_mix =  0.300 |ddv_scf|^2 =  3.797E-12

      iter #  10 total cpu time :  3738.3 secs   av.it.:  10.4
      thresh= 1.948E-07 alpha_mix =  0.300 |ddv_scf|^2 =  6.791E-14

      iter #  11 total cpu time :  3770.2 secs   av.it.:  12.5
      thresh= 2.606E-08 alpha_mix =  0.300 |ddv_scf|^2 =  6.520E-15

     End of self-consistent calculation

     Convergence has been achieved 


     Representation #  11 mode #  11

     Self-consistent Calculation

      iter #   1 total cpu time :  3818.5 secs   av.it.:   5.1
      thresh= 1.000E-02 alpha_mix =  0.300 |ddv_scf|^2 =  6.481E-06

      iter #   2 total cpu time :  3847.0 secs   av.it.:  10.7
      thresh= 2.546E-04 alpha_mix =  0.300 |ddv_scf|^2 =  3.730E-05

      iter #   3 total cpu time :  3876.2 secs   av.it.:   8.9
      thresh= 6.107E-04 alpha_mix =  0.300 |ddv_scf|^2 =  3.792E-09

      iter #   4 total cpu time :  3910.5 secs   av.it.:  12.0
      thresh= 6.158E-06 alpha_mix =  0.300 |ddv_scf|^2 =  4.758E-10

      iter #   5 total cpu time :  3942.6 secs   av.it.:  12.2
      thresh= 2.181E-06 alpha_mix =  0.300 |ddv_scf|^2 =  5.813E-11

      iter #   6 total cpu time :  3977.0 secs   av.it.:  12.4
      thresh= 7.624E-07 alpha_mix =  0.300 |ddv_scf|^2 =  5.621E-12

      iter #   7 total cpu time :  4010.2 secs   av.it.:  12.1
      thresh= 2.371E-07 alpha_mix =  0.300 |ddv_scf|^2 =  6.199E-12

      iter #   8 total cpu time :  4045.4 secs   av.it.:  10.4
      thresh= 2.490E-07 alpha_mix =  0.300 |ddv_scf|^2 =  5.251E-12

      iter #   9 total cpu time :  4080.1 secs   av.it.:  10.1
      thresh= 2.292E-07 alpha_mix =  0.300 |ddv_scf|^2 =  1.939E-12

      iter #  10 total cpu time :  4115.8 secs   av.it.:  11.1
      thresh= 1.392E-07 alpha_mix =  0.300 |ddv_scf|^2 =  3.852E-14

      iter #  11 total cpu time :  4150.8 secs   av.it.:  12.2
      thresh= 1.963E-08 alpha_mix =  0.300 |ddv_scf|^2 =  7.257E-15

     End of self-consistent calculation

     Convergence has been achieved 


     Representation #  12 mode #  12

     Self-consistent Calculation

      iter #   1 total cpu time :  4196.5 secs   av.it.:   4.9
      thresh= 1.000E-02 alpha_mix =  0.300 |ddv_scf|^2 =  3.558E-06

      iter #   2 total cpu time :  4223.4 secs   av.it.:  10.7
      thresh= 1.886E-04 alpha_mix =  0.300 |ddv_scf|^2 =  2.027E-05

      iter #   3 total cpu time :  4253.5 secs   av.it.:   8.9
      thresh= 4.502E-04 alpha_mix =  0.300 |ddv_scf|^2 =  4.134E-09

      iter #   4 total cpu time :  4284.2 secs   av.it.:  11.8
      thresh= 6.429E-06 alpha_mix =  0.300 |ddv_scf|^2 =  5.473E-10

      iter #   5 total cpu time :  4316.5 secs   av.it.:  12.2
      thresh= 2.339E-06 alpha_mix =  0.300 |ddv_scf|^2 =  5.329E-11

      iter #   6 total cpu time :  4351.2 secs   av.it.:  12.3
      thresh= 7.300E-07 alpha_mix =  0.300 |ddv_scf|^2 =  5.331E-12

      iter #   7 total cpu time :  4382.4 secs   av.it.:  12.0
      thresh= 2.309E-07 alpha_mix =  0.300 |ddv_scf|^2 =  2.221E-12

      iter #   8 total cpu time :  4415.7 secs   av.it.:  10.9
      thresh= 1.490E-07 alpha_mix =  0.300 |ddv_scf|^2 =  2.376E-12

      iter #   9 total cpu time :  4449.9 secs   av.it.:  10.8
      thresh= 1.541E-07 alpha_mix =  0.300 |ddv_scf|^2 =  7.039E-13

      iter #  10 total cpu time :  4482.5 secs   av.it.:  10.5
      thresh= 8.390E-08 alpha_mix =  0.300 |ddv_scf|^2 =  4.789E-14

      iter #  11 total cpu time :  4517.3 secs   av.it.:  11.9
      thresh= 2.188E-08 alpha_mix =  0.300 |ddv_scf|^2 =  7.244E-15

     End of self-consistent calculation

     Convergence has been achieved 


     Representation #  13 mode #  13

     Self-consistent Calculation

      iter #   1 total cpu time :  4563.2 secs   av.it.:   5.0
      thresh= 1.000E-02 alpha_mix =  0.300 |ddv_scf|^2 =  4.599E-06

      iter #   2 total cpu time :  4593.9 secs   av.it.:  10.7
      thresh= 2.145E-04 alpha_mix =  0.300 |ddv_scf|^2 =  2.622E-05

      iter #   3 total cpu time :  4623.2 secs   av.it.:   8.9
      thresh= 5.121E-04 alpha_mix =  0.300 |ddv_scf|^2 =  3.810E-09

      iter #   4 total cpu time :  4657.9 secs   av.it.:  11.8
      thresh= 6.173E-06 alpha_mix =  0.300 |ddv_scf|^2 =  5.984E-10

      iter #   5 total cpu time :  4690.3 secs   av.it.:  12.4
      thresh= 2.446E-06 alpha_mix =  0.300 |ddv_scf|^2 =  4.946E-11

      iter #   6 total cpu time :  4725.6 secs   av.it.:  12.3
      thresh= 7.033E-07 alpha_mix =  0.300 |ddv_scf|^2 =  2.711E-11

      iter #   7 total cpu time :  4757.0 secs   av.it.:  10.1
      thresh= 5.207E-07 alpha_mix =  0.300 |ddv_scf|^2 =  1.354E-11

      iter #   8 total cpu time :  4787.8 secs   av.it.:  11.3
      thresh= 3.679E-07 alpha_mix =  0.300 |ddv_scf|^2 =  1.407E-12

      iter #   9 total cpu time :  4822.3 secs   av.it.:  11.2
      thresh= 1.186E-07 alpha_mix =  0.300 |ddv_scf|^2 =  2.735E-12

      iter #  10 total cpu time :  4855.9 secs   av.it.:  10.9
      thresh= 1.654E-07 alpha_mix =  0.300 |ddv_scf|^2 =  5.598E-14

      iter #  11 total cpu time :  4890.3 secs   av.it.:  12.0
      thresh= 2.366E-08 alpha_mix =  0.300 |ddv_scf|^2 =  1.201E-14

      iter #  12 total cpu time :  4922.3 secs   av.it.:  12.2
      thresh= 1.096E-08 alpha_mix =  0.300 |ddv_scf|^2 =  2.796E-15

     End of self-consistent calculation

     Convergence has been achieved 


     Representation #  14 mode #  14

     Self-consistent Calculation

      iter #   1 total cpu time :  4966.9 secs   av.it.:   5.0
      thresh= 1.000E-02 alpha_mix =  0.300 |ddv_scf|^2 =  6.456E-06

      iter #   2 total cpu time :  4995.8 secs   av.it.:  10.6
      thresh= 2.541E-04 alpha_mix =  0.300 |ddv_scf|^2 =  3.686E-05

      iter #   3 total cpu time :  5025.8 secs   av.it.:   8.9
      thresh= 6.071E-04 alpha_mix =  0.300 |ddv_scf|^2 =  3.527E-09

      iter #   4 total cpu time :  5057.0 secs   av.it.:  11.7
      thresh= 5.939E-06 alpha_mix =  0.300 |ddv_scf|^2 =  5.969E-10

      iter #   5 total cpu time :  5092.6 secs   av.it.:  12.2
      thresh= 2.443E-06 alpha_mix =  0.300 |ddv_scf|^2 =  5.267E-11

      iter #   6 total cpu time :  5123.7 secs   av.it.:  12.2
      thresh= 7.257E-07 alpha_mix =  0.300 |ddv_scf|^2 =  7.588E-12

      iter #   7 total cpu time :  5153.1 secs   av.it.:  11.5
      thresh= 2.755E-07 alpha_mix =  0.300 |ddv_scf|^2 =  1.744E-11

      iter #   8 total cpu time :  5184.1 secs   av.it.:  10.0
      thresh= 4.176E-07 alpha_mix =  0.300 |ddv_scf|^2 =  1.439E-12

      iter #   9 total cpu time :  5218.6 secs   av.it.:  11.9
      thresh= 1.200E-07 alpha_mix =  0.300 |ddv_scf|^2 =  2.661E-12

      iter #  10 total cpu time :  5248.1 secs   av.it.:   9.8
      thresh= 1.631E-07 alpha_mix =  0.300 |ddv_scf|^2 =  6.052E-14

      iter #  11 total cpu time :  5278.3 secs   av.it.:  11.9
      thresh= 2.460E-08 alpha_mix =  0.300 |ddv_scf|^2 =  9.994E-15

     End of self-consistent calculation

     Convergence has been achieved 


     Representation #  15 mode #  15

     Self-consistent Calculation

      iter #   1 total cpu time :  5326.1 secs   av.it.:   5.0
      thresh= 1.000E-02 alpha_mix =  0.300 |ddv_scf|^2 =  3.611E-06

      iter #   2 total cpu time :  5353.9 secs   av.it.:  10.7
      thresh= 1.900E-04 alpha_mix =  0.300 |ddv_scf|^2 =  2.054E-05

      iter #   3 total cpu time :  5381.4 secs   av.it.:   8.9
      thresh= 4.532E-04 alpha_mix =  0.300 |ddv_scf|^2 =  3.560E-09

      iter #   4 total cpu time :  5410.4 secs   av.it.:  11.9
      thresh= 5.967E-06 alpha_mix =  0.300 |ddv_scf|^2 =  5.273E-10

      iter #   5 total cpu time :  5444.3 secs   av.it.:  12.3
      thresh= 2.296E-06 alpha_mix =  0.300 |ddv_scf|^2 =  5.021E-11

      iter #   6 total cpu time :  5473.7 secs   av.it.:  12.3
      thresh= 7.086E-07 alpha_mix =  0.300 |ddv_scf|^2 =  1.121E-11

      iter #   7 total cpu time :  5504.1 secs   av.it.:  11.1
      thresh= 3.349E-07 alpha_mix =  0.300 |ddv_scf|^2 =  2.049E-11

      iter #   8 total cpu time :  5536.5 secs   av.it.:  10.5
      thresh= 4.527E-07 alpha_mix =  0.300 |ddv_scf|^2 =  1.325E-12

      iter #   9 total cpu time :  5567.5 secs   av.it.:  11.6
      thresh= 1.151E-07 alpha_mix =  0.300 |ddv_scf|^2 =  1.790E-12

      iter #  10 total cpu time :  5597.9 secs   av.it.:  10.9
      thresh= 1.338E-07 alpha_mix =  0.300 |ddv_scf|^2 =  5.033E-14

      iter #  11 total cpu time :  5631.7 secs   av.it.:  12.1
      thresh= 2.243E-08 alpha_mix =  0.300 |ddv_scf|^2 =  1.068E-14

      iter #  12 total cpu time :  5664.4 secs   av.it.:  12.2
      thresh= 1.033E-08 alpha_mix =  0.300 |ddv_scf|^2 =  2.391E-15

     End of self-consistent calculation

     Convergence has been achieved 


     Representation #  16 mode #  16

     Self-consistent Calculation

      iter #   1 total cpu time :  5713.1 secs   av.it.:   5.3
      thresh= 1.000E-02 alpha_mix =  0.300 |ddv_scf|^2 =  6.986E-06

      iter #   2 total cpu time :  5741.5 secs   av.it.:  10.7
      thresh= 2.643E-04 alpha_mix =  0.300 |ddv_scf|^2 =  3.996E-05

      iter #   3 total cpu time :  5771.0 secs   av.it.:   8.9
      thresh= 6.321E-04 alpha_mix =  0.300 |ddv_scf|^2 =  6.906E-09

      iter #   4 total cpu time :  5801.6 secs   av.it.:  12.0
      thresh= 8.310E-06 alpha_mix =  0.300 |ddv_scf|^2 =  8.137E-10

      iter #   5 total cpu time :  5834.5 secs   av.it.:  12.2
      thresh= 2.853E-06 alpha_mix =  0.300 |ddv_scf|^2 =  7.827E-11

      iter #   6 total cpu time :  5869.2 secs   av.it.:  12.5
      thresh= 8.847E-07 alpha_mix =  0.300 |ddv_scf|^2 =  7.495E-12

      iter #   7 total cpu time :  5901.3 secs   av.it.:  12.0
      thresh= 2.738E-07 alpha_mix =  0.300 |ddv_scf|^2 =  3.943E-12

      iter #   8 total cpu time :  5936.4 secs   av.it.:  10.8
      thresh= 1.986E-07 alpha_mix =  0.300 |ddv_scf|^2 =  2.391E-12

      iter #   9 total cpu time :  5975.6 secs   av.it.:  11.0
      thresh= 1.546E-07 alpha_mix =  0.300 |ddv_scf|^2 =  4.654E-13

      iter #  10 total cpu time :  6000.8 secs   av.it.:  11.2
      thresh= 6.822E-08 alpha_mix =  0.300 |ddv_scf|^2 =  8.553E-14

      iter #  11 total cpu time :  6030.6 secs   av.it.:  11.6
      thresh= 2.925E-08 alpha_mix =  0.300 |ddv_scf|^2 =  6.933E-15

     End of self-consistent calculation

     Convergence has been achieved 


     Representation #  17 mode #  17

     Self-consistent Calculation

      iter #   1 total cpu time :  6079.1 secs   av.it.:   4.9
      thresh= 1.000E-02 alpha_mix =  0.300 |ddv_scf|^2 =  2.924E-07

      iter #   2 total cpu time :  6107.5 secs   av.it.:  11.3
      thresh= 5.407E-05 alpha_mix =  0.300 |ddv_scf|^2 =  1.170E-06

      iter #   3 total cpu time :  6133.9 secs   av.it.:   9.1
      thresh= 1.081E-04 alpha_mix =  0.300 |ddv_scf|^2 =  1.302E-08

      iter #   4 total cpu time :  6163.1 secs   av.it.:  11.6
      thresh= 1.141E-05 alpha_mix =  0.300 |ddv_scf|^2 =  4.708E-10

      iter #   5 total cpu time :  6194.0 secs   av.it.:  12.2
      thresh= 2.170E-06 alpha_mix =  0.300 |ddv_scf|^2 =  4.729E-11

      iter #   6 total cpu time :  6226.2 secs   av.it.:  12.3
      thresh= 6.877E-07 alpha_mix =  0.300 |ddv_scf|^2 =  6.252E-12

      iter #   7 total cpu time :  6267.9 secs   av.it.:  12.1
      thresh= 2.500E-07 alpha_mix =  0.300 |ddv_scf|^2 =  5.670E-12

      iter #   8 total cpu time :  6299.9 secs   av.it.:  10.0
      thresh= 2.381E-07 alpha_mix =  0.300 |ddv_scf|^2 =  1.628E-12

      iter #   9 total cpu time :  6333.8 secs   av.it.:  11.7
      thresh= 1.276E-07 alpha_mix =  0.300 |ddv_scf|^2 =  1.599E-12

      iter #  10 total cpu time :  6369.1 secs   av.it.:   9.4
      thresh= 1.264E-07 alpha_mix =  0.300 |ddv_scf|^2 =  7.828E-14

      iter #  11 total cpu time :  6404.0 secs   av.it.:  12.0
      thresh= 2.798E-08 alpha_mix =  0.300 |ddv_scf|^2 =  8.363E-15

     End of self-consistent calculation

     Convergence has been achieved 


     Representation #  18 mode #  18

     Self-consistent Calculation

      iter #   1 total cpu time :  6446.4 secs   av.it.:   5.1
      thresh= 1.000E-02 alpha_mix =  0.300 |ddv_scf|^2 =  3.354E-06

      iter #   2 total cpu time :  6473.2 secs   av.it.:  10.8
      thresh= 1.831E-04 alpha_mix =  0.300 |ddv_scf|^2 =  1.867E-05

      iter #   3 total cpu time :  6504.9 secs   av.it.:   8.9
      thresh= 4.321E-04 alpha_mix =  0.300 |ddv_scf|^2 =  6.059E-09

      iter #   4 total cpu time :  6534.5 secs   av.it.:  11.8
      thresh= 7.784E-06 alpha_mix =  0.300 |ddv_scf|^2 =  5.756E-10

      iter #   5 total cpu time :  6565.7 secs   av.it.:  12.4
      thresh= 2.399E-06 alpha_mix =  0.300 |ddv_scf|^2 =  5.436E-11

      iter #   6 total cpu time :  6598.8 secs   av.it.:  12.3
      thresh= 7.373E-07 alpha_mix =  0.300 |ddv_scf|^2 =  2.358E-11

      iter #   7 total cpu time :  6629.9 secs   av.it.:  10.6
      thresh= 4.856E-07 alpha_mix =  0.300 |ddv_scf|^2 =  2.485E-11

      iter #   8 total cpu time :  6664.2 secs   av.it.:  11.2
      thresh= 4.985E-07 alpha_mix =  0.300 |ddv_scf|^2 =  1.019E-12

      iter #   9 total cpu time :  6698.4 secs   av.it.:  11.9
      thresh= 1.009E-07 alpha_mix =  0.300 |ddv_scf|^2 =  3.747E-12

      iter #  10 total cpu time :  6731.1 secs   av.it.:   9.9
      thresh= 1.936E-07 alpha_mix =  0.300 |ddv_scf|^2 =  6.375E-14

      iter #  11 total cpu time :  6764.3 secs   av.it.:  12.2
      thresh= 2.525E-08 alpha_mix =  0.300 |ddv_scf|^2 =  1.134E-14

      iter #  12 total cpu time :  6798.0 secs   av.it.:  12.2
      thresh= 1.065E-08 alpha_mix =  0.300 |ddv_scf|^2 =  2.305E-15

     End of self-consistent calculation

     Convergence has been achieved 


     Representation #  19 mode #  19

     Self-consistent Calculation

      iter #   1 total cpu time :  6847.2 secs   av.it.:   7.5
      thresh= 1.000E-02 alpha_mix =  0.300 |ddv_scf|^2 =  1.247E-04

      iter #   2 total cpu time :  6877.3 secs   av.it.:  10.7
      thresh= 1.117E-03 alpha_mix =  0.300 |ddv_scf|^2 =  7.107E-04

      iter #   3 total cpu time :  6906.3 secs   av.it.:   8.9
      thresh= 2.666E-03 alpha_mix =  0.300 |ddv_scf|^2 =  1.637E-07

      iter #   4 total cpu time :  6935.1 secs   av.it.:  11.8
      thresh= 4.046E-05 alpha_mix =  0.300 |ddv_scf|^2 =  2.528E-08

      iter #   5 total cpu time :  6966.7 secs   av.it.:  12.1
      thresh= 1.590E-05 alpha_mix =  0.300 |ddv_scf|^2 =  4.720E-09

      iter #   6 total cpu time :  7000.2 secs   av.it.:  12.4
      thresh= 6.870E-06 alpha_mix =  0.300 |ddv_scf|^2 =  3.337E-10

      iter #   7 total cpu time :  7032.8 secs   av.it.:  12.1
      thresh= 1.827E-06 alpha_mix =  0.300 |ddv_scf|^2 =  1.754E-11

      iter #   8 total cpu time :  7068.2 secs   av.it.:  11.3
      thresh= 4.188E-07 alpha_mix =  0.300 |ddv_scf|^2 =  3.306E-11

      iter #   9 total cpu time :  7097.2 secs   av.it.:   9.8
      thresh= 5.749E-07 alpha_mix =  0.300 |ddv_scf|^2 =  3.941E-12

      iter #  10 total cpu time :  7129.4 secs   av.it.:  12.1
      thresh= 1.985E-07 alpha_mix =  0.300 |ddv_scf|^2 =  4.662E-12

      iter #  11 total cpu time :  7163.6 secs   av.it.:  10.4
      thresh= 2.159E-07 alpha_mix =  0.300 |ddv_scf|^2 =  7.884E-14

      iter #  12 total cpu time :  7200.6 secs   av.it.:  11.9
      thresh= 2.808E-08 alpha_mix =  0.300 |ddv_scf|^2 =  2.131E-14

      iter #  13 total cpu time :  7236.9 secs   av.it.:  11.6
      thresh= 1.460E-08 alpha_mix =  0.300 |ddv_scf|^2 =  5.900E-15

     End of self-consistent calculation

     Convergence has been achieved 


     Representation #  20 mode #  20

     Self-consistent Calculation

      iter #   1 total cpu time :  7283.7 secs   av.it.:   4.9
      thresh= 1.000E-02 alpha_mix =  0.300 |ddv_scf|^2 =  1.064E-06

      iter #   2 total cpu time :  7310.7 secs   av.it.:  10.9
      thresh= 1.032E-04 alpha_mix =  0.300 |ddv_scf|^2 =  5.827E-06

      iter #   3 total cpu time :  7340.2 secs   av.it.:   8.9
      thresh= 2.414E-04 alpha_mix =  0.300 |ddv_scf|^2 =  4.475E-09

      iter #   4 total cpu time :  7374.1 secs   av.it.:  11.9
      thresh= 6.689E-06 alpha_mix =  0.300 |ddv_scf|^2 =  5.232E-10

      iter #   5 total cpu time :  7409.1 secs   av.it.:  12.4
      thresh= 2.287E-06 alpha_mix =  0.300 |ddv_scf|^2 =  4.849E-11

      iter #   6 total cpu time :  7444.7 secs   av.it.:  12.4
      thresh= 6.964E-07 alpha_mix =  0.300 |ddv_scf|^2 =  1.962E-11

      iter #   7 total cpu time :  7476.5 secs   av.it.:  10.2
      thresh= 4.430E-07 alpha_mix =  0.300 |ddv_scf|^2 =  1.509E-11

      iter #   8 total cpu time :  7511.6 secs   av.it.:  11.1
      thresh= 3.885E-07 alpha_mix =  0.300 |ddv_scf|^2 =  1.161E-12

      iter #   9 total cpu time :  7547.4 secs   av.it.:  12.1
      thresh= 1.078E-07 alpha_mix =  0.300 |ddv_scf|^2 =  2.076E-12

      iter #  10 total cpu time :  7583.7 secs   av.it.:  10.0
      thresh= 1.441E-07 alpha_mix =  0.300 |ddv_scf|^2 =  5.125E-14

      iter #  11 total cpu time :  7614.0 secs   av.it.:  11.9
      thresh= 2.264E-08 alpha_mix =  0.300 |ddv_scf|^2 =  1.043E-14

      iter #  12 total cpu time :  7650.6 secs   av.it.:  12.3
      thresh= 1.021E-08 alpha_mix =  0.300 |ddv_scf|^2 =  2.129E-15

     End of self-consistent calculation

     Convergence has been achieved 


     Representation #  21 mode #  21

     Self-consistent Calculation

      iter #   1 total cpu time :  7695.4 secs   av.it.:   4.5
      thresh= 1.000E-02 alpha_mix =  0.300 |ddv_scf|^2 =  1.132E-08

      iter #   2 total cpu time :  7720.0 secs   av.it.:  11.7
      thresh= 1.064E-05 alpha_mix =  0.300 |ddv_scf|^2 =  3.124E-09

      iter #   3 total cpu time :  7746.5 secs   av.it.:  12.4
      thresh= 5.589E-06 alpha_mix =  0.300 |ddv_scf|^2 =  1.514E-10

      iter #   4 total cpu time :  7775.1 secs   av.it.:  12.3
      thresh= 1.230E-06 alpha_mix =  0.300 |ddv_scf|^2 =  1.242E-11

      iter #   5 total cpu time :  7803.7 secs   av.it.:  12.6
      thresh= 3.525E-07 alpha_mix =  0.300 |ddv_scf|^2 =  1.004E-12

      iter #   6 total cpu time :  7834.2 secs   av.it.:  12.8
      thresh= 1.002E-07 alpha_mix =  0.300 |ddv_scf|^2 =  1.348E-13

      iter #   7 total cpu time :  7867.1 secs   av.it.:  12.5
      thresh= 3.671E-08 alpha_mix =  0.300 |ddv_scf|^2 =  4.944E-15

     End of self-consistent calculation

     Convergence has been achieved 


     Representation #  22 mode #  22

     Self-consistent Calculation

      iter #   1 total cpu time :  7914.8 secs   av.it.:   4.5
      thresh= 1.000E-02 alpha_mix =  0.300 |ddv_scf|^2 =  8.963E-09

      iter #   2 total cpu time :  7939.9 secs   av.it.:  11.7
      thresh= 9.467E-06 alpha_mix =  0.300 |ddv_scf|^2 =  2.940E-09

      iter #   3 total cpu time :  7968.4 secs   av.it.:  12.6
      thresh= 5.422E-06 alpha_mix =  0.300 |ddv_scf|^2 =  6.515E-11

      iter #   4 total cpu time :  7998.5 secs   av.it.:  12.5
      thresh= 8.071E-07 alpha_mix =  0.300 |ddv_scf|^2 =  6.741E-12

      iter #   5 total cpu time :  8033.4 secs   av.it.:  12.4
      thresh= 2.596E-07 alpha_mix =  0.300 |ddv_scf|^2 =  9.077E-13

      iter #   6 total cpu time :  8063.5 secs   av.it.:  12.9
      thresh= 9.527E-08 alpha_mix =  0.300 |ddv_scf|^2 =  9.756E-14

      iter #   7 total cpu time :  8097.2 secs   av.it.:  12.7
      thresh= 3.123E-08 alpha_mix =  0.300 |ddv_scf|^2 =  4.250E-15

     End of self-consistent calculation

     Convergence has been achieved 


     Representation #  23 mode #  23

     Self-consistent Calculation

      iter #   1 total cpu time :  8141.5 secs   av.it.:   4.4
      thresh= 1.000E-02 alpha_mix =  0.300 |ddv_scf|^2 =  1.080E-08

      iter #   2 total cpu time :  8168.5 secs   av.it.:  11.7
      thresh= 1.039E-05 alpha_mix =  0.300 |ddv_scf|^2 =  2.470E-09

      iter #   3 total cpu time :  8197.6 secs   av.it.:  12.3
      thresh= 4.970E-06 alpha_mix =  0.300 |ddv_scf|^2 =  1.833E-10

      iter #   4 total cpu time :  8226.3 secs   av.it.:  12.4
      thresh= 1.354E-06 alpha_mix =  0.300 |ddv_scf|^2 =  1.279E-11

      iter #   5 total cpu time :  8254.5 secs   av.it.:  12.4
      thresh= 3.577E-07 alpha_mix =  0.300 |ddv_scf|^2 =  7.746E-13

      iter #   6 total cpu time :  8287.7 secs   av.it.:  12.6
      thresh= 8.801E-08 alpha_mix =  0.300 |ddv_scf|^2 =  1.045E-13

      iter #   7 total cpu time :  8317.4 secs   av.it.:  12.5
      thresh= 3.232E-08 alpha_mix =  0.300 |ddv_scf|^2 =  3.933E-15

     End of self-consistent calculation

     Convergence has been achieved 


     Representation #  24 mode #  24

     Self-consistent Calculation

      iter #   1 total cpu time :  8360.4 secs   av.it.:   4.7
      thresh= 1.000E-02 alpha_mix =  0.300 |ddv_scf|^2 =  4.427E-08

      iter #   2 total cpu time :  8386.8 secs   av.it.:  11.5
      thresh= 2.104E-05 alpha_mix =  0.300 |ddv_scf|^2 =  6.190E-09

      iter #   3 total cpu time :  8415.2 secs   av.it.:  12.1
      thresh= 7.867E-06 alpha_mix =  0.300 |ddv_scf|^2 =  3.364E-10

      iter #   4 total cpu time :  8444.1 secs   av.it.:  12.5
      thresh= 1.834E-06 alpha_mix =  0.300 |ddv_scf|^2 =  1.481E-11

      iter #   5 total cpu time :  8474.5 secs   av.it.:  12.6
      thresh= 3.849E-07 alpha_mix =  0.300 |ddv_scf|^2 =  8.704E-13

      iter #   6 total cpu time :  8506.9 secs   av.it.:  12.3
      thresh= 9.329E-08 alpha_mix =  0.300 |ddv_scf|^2 =  1.482E-13

      iter #   7 total cpu time :  8543.3 secs   av.it.:  12.5
      thresh= 3.850E-08 alpha_mix =  0.300 |ddv_scf|^2 =  4.730E-15

     End of self-consistent calculation

     Convergence has been achieved 


     Representation #  25 mode #  25

     Self-consistent Calculation

      iter #   1 total cpu time :  8594.6 secs   av.it.:   4.7
      thresh= 1.000E-02 alpha_mix =  0.300 |ddv_scf|^2 =  4.000E-08

      iter #   2 total cpu time :  8623.3 secs   av.it.:  11.5
      thresh= 2.000E-05 alpha_mix =  0.300 |ddv_scf|^2 =  5.824E-09

      iter #   3 total cpu time :  8655.9 secs   av.it.:  12.2
      thresh= 7.631E-06 alpha_mix =  0.300 |ddv_scf|^2 =  3.003E-10

      iter #   4 total cpu time :  8692.6 secs   av.it.:  12.4
      thresh= 1.733E-06 alpha_mix =  0.300 |ddv_scf|^2 =  1.632E-11

      iter #   5 total cpu time :  8722.8 secs   av.it.:  12.4
      thresh= 4.040E-07 alpha_mix =  0.300 |ddv_scf|^2 =  9.853E-13

      iter #   6 total cpu time :  8760.0 secs   av.it.:  12.3
      thresh= 9.926E-08 alpha_mix =  0.300 |ddv_scf|^2 =  1.379E-13

      iter #   7 total cpu time :  8794.4 secs   av.it.:  12.5
      thresh= 3.714E-08 alpha_mix =  0.300 |ddv_scf|^2 =  4.599E-15

     End of self-consistent calculation

     Convergence has been achieved 


     Representation #  26 mode #  26

     Self-consistent Calculation

      iter #   1 total cpu time :  8844.8 secs   av.it.:   4.7
      thresh= 1.000E-02 alpha_mix =  0.300 |ddv_scf|^2 =  4.000E-08

      iter #   2 total cpu time :  8874.8 secs   av.it.:  11.5
      thresh= 2.000E-05 alpha_mix =  0.300 |ddv_scf|^2 =  5.824E-09

      iter #   3 total cpu time :  8903.0 secs   av.it.:  12.2
      thresh= 7.631E-06 alpha_mix =  0.300 |ddv_scf|^2 =  3.003E-10

      iter #   4 total cpu time :  8937.7 secs   av.it.:  12.4
      thresh= 1.733E-06 alpha_mix =  0.300 |ddv_scf|^2 =  1.632E-11

      iter #   5 total cpu time :  8969.5 secs   av.it.:  12.4
      thresh= 4.040E-07 alpha_mix =  0.300 |ddv_scf|^2 =  9.853E-13

      iter #   6 total cpu time :  9006.2 secs   av.it.:  12.3
      thresh= 9.926E-08 alpha_mix =  0.300 |ddv_scf|^2 =  1.379E-13

      iter #   7 total cpu time :  9039.2 secs   av.it.:  12.5
      thresh= 3.714E-08 alpha_mix =  0.300 |ddv_scf|^2 =  4.599E-15

     End of self-consistent calculation

     Convergence has been achieved 


     Representation #  27 mode #  27

     Self-consistent Calculation

      iter #   1 total cpu time :  9087.3 secs   av.it.:   4.8
      thresh= 1.000E-02 alpha_mix =  0.300 |ddv_scf|^2 =  4.386E-08

      iter #   2 total cpu time :  9118.5 secs   av.it.:  11.5
      thresh= 2.094E-05 alpha_mix =  0.300 |ddv_scf|^2 =  6.196E-09

      iter #   3 total cpu time :  9155.5 secs   av.it.:  12.1
      thresh= 7.871E-06 alpha_mix =  0.300 |ddv_scf|^2 =  3.377E-10

      iter #   4 total cpu time :  9188.0 secs   av.it.:  12.5
      thresh= 1.838E-06 alpha_mix =  0.300 |ddv_scf|^2 =  1.490E-11

      iter #   5 total cpu time :  9220.7 secs   av.it.:  12.5
      thresh= 3.860E-07 alpha_mix =  0.300 |ddv_scf|^2 =  1.067E-12

      iter #   6 total cpu time :  9255.5 secs   av.it.:  12.5
      thresh= 1.033E-07 alpha_mix =  0.300 |ddv_scf|^2 =  1.276E-13

      iter #   7 total cpu time :  9286.5 secs   av.it.:  12.4
      thresh= 3.572E-08 alpha_mix =  0.300 |ddv_scf|^2 =  4.958E-15

     End of self-consistent calculation

     Convergence has been achieved 


     Representation #  28 mode #  28

     Self-consistent Calculation

      iter #   1 total cpu time :  9335.6 secs   av.it.:   4.2
      thresh= 1.000E-02 alpha_mix =  0.300 |ddv_scf|^2 =  7.806E-09

      iter #   2 total cpu time :  9364.4 secs   av.it.:  11.8
      thresh= 8.835E-06 alpha_mix =  0.300 |ddv_scf|^2 =  1.680E-09

      iter #   3 total cpu time :  9395.3 secs   av.it.:  12.1
      thresh= 4.099E-06 alpha_mix =  0.300 |ddv_scf|^2 =  1.801E-10

      iter #   4 total cpu time :  9426.0 secs   av.it.:  12.4
      thresh= 1.342E-06 alpha_mix =  0.300 |ddv_scf|^2 =  7.887E-12

      iter #   5 total cpu time :  9456.5 secs   av.it.:  12.4
      thresh= 2.808E-07 alpha_mix =  0.300 |ddv_scf|^2 =  7.394E-13

      iter #   6 total cpu time :  9489.3 secs   av.it.:  12.5
      thresh= 8.599E-08 alpha_mix =  0.300 |ddv_scf|^2 =  7.036E-14

      iter #   7 total cpu time :  9522.3 secs   av.it.:  12.6
      thresh= 2.653E-08 alpha_mix =  0.300 |ddv_scf|^2 =  2.582E-15

     End of self-consistent calculation

     Convergence has been achieved 


     Representation #  29 mode #  29

     Self-consistent Calculation

      iter #   1 total cpu time :  9568.2 secs   av.it.:   4.7
      thresh= 1.000E-02 alpha_mix =  0.300 |ddv_scf|^2 =  4.427E-08

      iter #   2 total cpu time :  9596.2 secs   av.it.:  11.5
      thresh= 2.104E-05 alpha_mix =  0.300 |ddv_scf|^2 =  6.190E-09

      iter #   3 total cpu time :  9626.6 secs   av.it.:  12.1
      thresh= 7.867E-06 alpha_mix =  0.300 |ddv_scf|^2 =  3.364E-10

      iter #   4 total cpu time :  9660.8 secs   av.it.:  12.5
      thresh= 1.834E-06 alpha_mix =  0.300 |ddv_scf|^2 =  1.481E-11

      iter #   5 total cpu time :  9692.0 secs   av.it.:  12.6
      thresh= 3.849E-07 alpha_mix =  0.300 |ddv_scf|^2 =  8.704E-13

      iter #   6 total cpu time :  9725.6 secs   av.it.:  12.3
      thresh= 9.329E-08 alpha_mix =  0.300 |ddv_scf|^2 =  1.482E-13

      iter #   7 total cpu time :  9756.0 secs   av.it.:  12.5
      thresh= 3.850E-08 alpha_mix =  0.300 |ddv_scf|^2 =  4.730E-15

     End of self-consistent calculation

     Convergence has been achieved 


     Representation #  30 mode #  30

     Self-consistent Calculation

      iter #   1 total cpu time :  9803.5 secs   av.it.:   4.8
      thresh= 1.000E-02 alpha_mix =  0.300 |ddv_scf|^2 =  4.386E-08

      iter #   2 total cpu time :  9832.6 secs   av.it.:  11.5
      thresh= 2.094E-05 alpha_mix =  0.300 |ddv_scf|^2 =  6.196E-09

      iter #   3 total cpu time :  9859.6 secs   av.it.:  12.1
      thresh= 7.871E-06 alpha_mix =  0.300 |ddv_scf|^2 =  3.377E-10

      iter #   4 total cpu time :  9889.9 secs   av.it.:  12.5
      thresh= 1.838E-06 alpha_mix =  0.300 |ddv_scf|^2 =  1.490E-11

      iter #   5 total cpu time :  9926.0 secs   av.it.:  12.5
      thresh= 3.860E-07 alpha_mix =  0.300 |ddv_scf|^2 =  1.067E-12

      iter #   6 total cpu time :  9954.1 secs   av.it.:  12.5
      thresh= 1.033E-07 alpha_mix =  0.300 |ddv_scf|^2 =  1.276E-13

      iter #   7 total cpu time :  9984.3 secs   av.it.:  12.4
      thresh= 3.572E-08 alpha_mix =  0.300 |ddv_scf|^2 =  4.958E-15

     End of self-consistent calculation

     Convergence has been achieved 


     Representation #  31 mode #  31

     Self-consistent Calculation

      iter #   1 total cpu time : 10033.4 secs   av.it.:   4.4
      thresh= 1.000E-02 alpha_mix =  0.300 |ddv_scf|^2 =  9.348E-09

      iter #   2 total cpu time : 10060.7 secs   av.it.:  11.7
      thresh= 9.668E-06 alpha_mix =  0.300 |ddv_scf|^2 =  2.107E-09

      iter #   3 total cpu time : 10094.7 secs   av.it.:  12.2
      thresh= 4.590E-06 alpha_mix =  0.300 |ddv_scf|^2 =  2.038E-10

      iter #   4 total cpu time : 10125.7 secs   av.it.:  12.4
      thresh= 1.427E-06 alpha_mix =  0.300 |ddv_scf|^2 =  9.098E-12

      iter #   5 total cpu time : 10156.9 secs   av.it.:  12.4
      thresh= 3.016E-07 alpha_mix =  0.300 |ddv_scf|^2 =  6.757E-13

      iter #   6 total cpu time : 10187.7 secs   av.it.:  12.6
      thresh= 8.220E-08 alpha_mix =  0.300 |ddv_scf|^2 =  6.721E-14

      iter #   7 total cpu time : 10221.2 secs   av.it.:  12.7
      thresh= 2.592E-08 alpha_mix =  0.300 |ddv_scf|^2 =  2.497E-15

     End of self-consistent calculation

     Convergence has been achieved 


     Representation #  32 mode #  32

     Self-consistent Calculation

      iter #   1 total cpu time : 10270.4 secs   av.it.:   7.1
      thresh= 1.000E-02 alpha_mix =  0.300 |ddv_scf|^2 =  1.684E-06

      iter #   2 total cpu time : 10298.9 secs   av.it.:  11.4
      thresh= 1.298E-04 alpha_mix =  0.300 |ddv_scf|^2 =  2.339E-07

      iter #   3 total cpu time : 10329.1 secs   av.it.:  11.9
      thresh= 4.836E-05 alpha_mix =  0.300 |ddv_scf|^2 =  2.388E-08

      iter #   4 total cpu time : 10359.2 secs   av.it.:  12.6
      thresh= 1.545E-05 alpha_mix =  0.300 |ddv_scf|^2 =  5.890E-10

      iter #   5 total cpu time : 10392.9 secs   av.it.:  12.2
      thresh= 2.427E-06 alpha_mix =  0.300 |ddv_scf|^2 =  2.712E-11

      iter #   6 total cpu time : 10422.1 secs   av.it.:  11.6
      thresh= 5.207E-07 alpha_mix =  0.300 |ddv_scf|^2 =  6.405E-12

      iter #   7 total cpu time : 10455.5 secs   av.it.:  12.5
      thresh= 2.531E-07 alpha_mix =  0.300 |ddv_scf|^2 =  5.685E-14

      iter #   8 total cpu time : 10491.4 secs   av.it.:  11.4
      thresh= 2.384E-08 alpha_mix =  0.300 |ddv_scf|^2 =  2.128E-14

      iter #   9 total cpu time : 10522.6 secs   av.it.:  12.6
      thresh= 1.459E-08 alpha_mix =  0.300 |ddv_scf|^2 =  8.130E-16

     End of self-consistent calculation

     Convergence has been achieved 


     Representation #  33 mode #  33

     Self-consistent Calculation

      iter #   1 total cpu time : 10569.8 secs   av.it.:   4.5
      thresh= 1.000E-02 alpha_mix =  0.300 |ddv_scf|^2 =  1.470E-08

      iter #   2 total cpu time : 10601.1 secs   av.it.:  11.7
      thresh= 1.212E-05 alpha_mix =  0.300 |ddv_scf|^2 =  3.079E-09

      iter #   3 total cpu time : 10636.8 secs   av.it.:  12.3
      thresh= 5.549E-06 alpha_mix =  0.300 |ddv_scf|^2 =  2.166E-10

      iter #   4 total cpu time : 10668.7 secs   av.it.:  12.4
      thresh= 1.472E-06 alpha_mix =  0.300 |ddv_scf|^2 =  1.450E-11

      iter #   5 total cpu time : 10702.6 secs   av.it.:  12.6
      thresh= 3.808E-07 alpha_mix =  0.300 |ddv_scf|^2 =  8.000E-13

      iter #   6 total cpu time : 10734.5 secs   av.it.:  12.5
      thresh= 8.944E-08 alpha_mix =  0.300 |ddv_scf|^2 =  1.206E-13

      iter #   7 total cpu time : 10769.1 secs   av.it.:  12.5
      thresh= 3.473E-08 alpha_mix =  0.300 |ddv_scf|^2 =  4.265E-15

     End of self-consistent calculation

     Convergence has been achieved 
 
     Number of q in the star =   24
     List of q in the star:
          1   0.353553391   0.117851130  -0.117851130
          2  -0.353553391   0.117851130   0.117851130
          3   0.353553391   0.117851130   0.117851130
          4   0.353553391  -0.117851130   0.117851130
          5   0.353553391  -0.117851130  -0.117851130
          6  -0.353553391  -0.117851130   0.117851130
          7  -0.353553391   0.117851130  -0.117851130
          8  -0.353553391  -0.117851130  -0.117851130
          9   0.117851130  -0.117851130   0.353553391
         10  -0.117851130  -0.117851130  -0.353553391
         11  -0.117851130  -0.117851130   0.353553391
         12  -0.117851130   0.117851130   0.353553391
         13  -0.117851130   0.353553391   0.117851130
         14  -0.117851130  -0.353553391  -0.117851130
         15   0.117851130  -0.353553391   0.117851130
         16  -0.117851130  -0.353553391   0.117851130
         17   0.117851130  -0.353553391  -0.117851130
         18   0.117851130   0.117851130  -0.353553391
         19  -0.117851130   0.353553391  -0.117851130
         20   0.117851130   0.353553391   0.117851130
         21   0.117851130  -0.117851130  -0.353553391
         22   0.117851130   0.353553391  -0.117851130
         23  -0.117851130   0.117851130  -0.353553391
         24   0.117851130   0.117851130   0.353553391

     Diagonalizing the dynamical matrix

     q = (    0.353553391   0.117851130  -0.117851130 ) 

 **************************************************************************
     freq (    1) =       5.007209 [THz] =     167.022507 [cm-1]
     freq (    2) =       5.478032 [THz] =     182.727492 [cm-1]
     freq (    3) =       8.439711 [THz] =     281.518469 [cm-1]
     freq (    4) =      18.725728 [THz] =     624.623059 [cm-1]
     freq (    5) =      21.485371 [THz] =     716.674840 [cm-1]
     freq (    6) =      21.579090 [THz] =     719.800972 [cm-1]
     freq (    7) =      29.064643 [THz] =     969.492150 [cm-1]
     freq (    8) =      29.421581 [THz] =     981.398316 [cm-1]
     freq (    9) =      30.037054 [THz] =    1001.928269 [cm-1]
     freq (   10) =      31.079792 [THz] =    1036.710267 [cm-1]
     freq (   11) =      32.471325 [THz] =    1083.126823 [cm-1]
     freq (   12) =      34.661072 [THz] =    1156.168928 [cm-1]
     freq (   13) =      36.837566 [THz] =    1228.768942 [cm-1]
     freq (   14) =      36.857222 [THz] =    1229.424606 [cm-1]
     freq (   15) =      38.778028 [THz] =    1293.495788 [cm-1]
     freq (   16) =      39.001473 [THz] =    1300.949119 [cm-1]
     freq (   17) =      40.686081 [THz] =    1357.141570 [cm-1]
     freq (   18) =      40.940154 [THz] =    1365.616557 [cm-1]
     freq (   19) =      41.483819 [THz] =    1383.751242 [cm-1]
     freq (   20) =      42.075288 [THz] =    1403.480553 [cm-1]
     freq (   21) =      42.452407 [THz] =    1416.059880 [cm-1]
     freq (   22) =      42.659850 [THz] =    1422.979415 [cm-1]
     freq (   23) =      43.209194 [THz] =    1441.303580 [cm-1]
     freq (   24) =      44.660650 [THz] =    1489.718938 [cm-1]
     freq (   25) =      48.698671 [THz] =    1624.412810 [cm-1]
     freq (   26) =      50.612280 [THz] =    1688.243929 [cm-1]
     freq (   27) =      51.515903 [THz] =    1718.385570 [cm-1]
     freq (   28) =      51.566494 [THz] =    1720.073077 [cm-1]
     freq (   29) =      52.046441 [THz] =    1736.082409 [cm-1]
     freq (   30) =      52.836849 [THz] =    1762.447586 [cm-1]
     freq (   31) =      54.346829 [THz] =    1812.815088 [cm-1]
     freq (   32) =      56.428525 [THz] =    1882.253002 [cm-1]
     freq (   33) =      63.158528 [THz] =    2106.741724 [cm-1]
 **************************************************************************

     Mode symmetry, C_s (m)     point group:

     freq (   1-   1) =        167.0  [cm-1]   --> A''                
     freq (   2-   2) =        182.7  [cm-1]   --> A'                 
     freq (   3-   3) =        281.5  [cm-1]   --> A'                 
     freq (   4-   4) =        624.6  [cm-1]   --> A'                 
     freq (   5-   5) =        716.7  [cm-1]   --> A'                 
     freq (   6-   6) =        719.8  [cm-1]   --> A''                
     freq (   7-   7) =        969.5  [cm-1]   --> A''                
     freq (   8-   8) =        981.4  [cm-1]   --> A'                 
     freq (   9-   9) =       1001.9  [cm-1]   --> A'                 
     freq (  10-  10) =       1036.7  [cm-1]   --> A''                
     freq (  11-  11) =       1083.1  [cm-1]   --> A'                 
     freq (  12-  12) =       1156.2  [cm-1]   --> A'                 
     freq (  13-  13) =       1228.8  [cm-1]   --> A''                
     freq (  14-  14) =       1229.4  [cm-1]   --> A'                 
     freq (  15-  15) =       1293.5  [cm-1]   --> A''                
     freq (  16-  16) =       1300.9  [cm-1]   --> A'                 
     freq (  17-  17) =       1357.1  [cm-1]   --> A''                
     freq (  18-  18) =       1365.6  [cm-1]   --> A'                 
     freq (  19-  19) =       1383.8  [cm-1]   --> A''                
     freq (  20-  20) =       1403.5  [cm-1]   --> A'                 
     freq (  21-  21) =       1416.1  [cm-1]   --> A''                
     freq (  22-  22) =       1423.0  [cm-1]   --> A''                
     freq (  23-  23) =       1441.3  [cm-1]   --> A'                 
     freq (  24-  24) =       1489.7  [cm-1]   --> A''                
     freq (  25-  25) =       1624.4  [cm-1]   --> A'                 
     freq (  26-  26) =       1688.2  [cm-1]   --> A'                 
     freq (  27-  27) =       1718.4  [cm-1]   --> A''                
     freq (  28-  28) =       1720.1  [cm-1]   --> A'                 
     freq (  29-  29) =       1736.1  [cm-1]   --> A''                
     freq (  30-  30) =       1762.4  [cm-1]   --> A'                 
     freq (  31-  31) =       1812.8  [cm-1]   --> A'                 
     freq (  32-  32) =       1882.3  [cm-1]   --> A'                 
     freq (  33-  33) =       2106.7  [cm-1]   --> A'                 
     Electron-phonon interaction  ...

     Gaussian Broadening:   0.005 Ry, ngauss=   0
     DOS =  5.706849 states/spin/Ry/Unit Cell at Ef= 20.445499 eV
     lambda(    1)=  0.1896   gamma=   25.90 GHz
     lambda(    2)=  0.2099   gamma=   34.33 GHz
     lambda(    3)=  0.0403   gamma=   15.66 GHz
     lambda(    4)=  0.6903   gamma= 1319.15 GHz
     lambda(    5)=  0.4312   gamma= 1084.80 GHz
     lambda(    6)=  0.6815   gamma= 1729.31 GHz
     lambda(    7)=  0.0283   gamma=  130.39 GHz
     lambda(    8)=  0.0130   gamma=   61.31 GHz
     lambda(    9)=  0.0510   gamma=  250.61 GHz
     lambda(   10)=  0.1757   gamma=  925.11 GHz
     lambda(   11)=  0.0782   gamma=  449.10 GHz
     lambda(   12)=  0.1224   gamma=  801.29 GHz
     lambda(   13)=  0.0181   gamma=  134.13 GHz
     lambda(   14)=  0.0760   gamma=  562.57 GHz
     lambda(   15)=  0.0852   gamma=  698.37 GHz
     lambda(   16)=  0.0295   gamma=  244.73 GHz
     lambda(   17)=  0.0132   gamma=  118.71 GHz
     lambda(   18)=  0.0727   gamma=  664.04 GHz
     lambda(   19)=  0.0490   gamma=  459.13 GHz
     lambda(   20)=  0.0215   gamma=  207.01 GHz
     lambda(   21)=  0.0329   gamma=  322.82 GHz
     lambda(   22)=  0.0399   gamma=  395.96 GHz
     lambda(   23)=  0.0246   gamma=  250.81 GHz
     lambda(   24)=  0.0442   gamma=  480.63 GHz
     lambda(   25)=  0.0959   gamma= 1239.30 GHz
     lambda(   26)=  0.0175   gamma=  244.42 GHz
     lambda(   27)=  0.0702   gamma= 1015.58 GHz
     lambda(   28)=  0.0438   gamma=  634.93 GHz
     lambda(   29)=  0.0089   gamma=  130.86 GHz
     lambda(   30)=  0.0269   gamma=  409.37 GHz
     lambda(   31)=  0.0157   gamma=  253.50 GHz
     lambda(   32)=  0.0104   gamma=  180.56 GHz
     lambda(   33)=  0.0176   gamma=  382.68 GHz
     Gaussian Broadening:   0.010 Ry, ngauss=   0
     DOS =  5.493178 states/spin/Ry/Unit Cell at Ef= 20.444376 eV
     lambda(    1)=  0.1293   gamma=   17.01 GHz
     lambda(    2)=  0.1506   gamma=   23.71 GHz
     lambda(    3)=  0.0389   gamma=   14.54 GHz
     lambda(    4)=  0.5329   gamma=  980.30 GHz
     lambda(    5)=  0.3348   gamma=  810.61 GHz
     lambda(    6)=  0.3871   gamma=  945.56 GHz
     lambda(    7)=  0.0256   gamma=  113.34 GHz
     lambda(    8)=  0.0158   gamma=   71.91 GHz
     lambda(    9)=  0.0531   gamma=  251.30 GHz
     lambda(   10)=  0.1155   gamma=  585.30 GHz
     lambda(   11)=  0.0694   gamma=  383.77 GHz
     lambda(   12)=  0.0937   gamma=  590.52 GHz
     lambda(   13)=  0.0224   gamma=  159.34 GHz
     lambda(   14)=  0.0494   gamma=  351.77 GHz
     lambda(   15)=  0.0708   gamma=  558.60 GHz
     lambda(   16)=  0.0250   gamma=  199.63 GHz
     lambda(   17)=  0.0106   gamma=   91.61 GHz
     lambda(   18)=  0.0591   gamma=  519.77 GHz
     lambda(   19)=  0.0293   gamma=  264.56 GHz
     lambda(   20)=  0.0211   gamma=  195.81 GHz
     lambda(   21)=  0.0352   gamma=  332.84 GHz
     lambda(   22)=  0.0488   gamma=  466.09 GHz
     lambda(   23)=  0.0178   gamma=  173.92 GHz
     lambda(   24)=  0.0493   gamma=  516.23 GHz
     lambda(   25)=  0.0741   gamma=  921.73 GHz
     lambda(   26)=  0.0143   gamma=  192.44 GHz
     lambda(   27)=  0.0341   gamma=  474.40 GHz
     lambda(   28)=  0.0317   gamma=  442.39 GHz
     lambda(   29)=  0.0090   gamma=  127.23 GHz
     lambda(   30)=  0.0197   gamma=  288.61 GHz
     lambda(   31)=  0.0140   gamma=  217.19 GHz
     lambda(   32)=  0.0114   gamma=  190.70 GHz
     lambda(   33)=  0.0131   gamma=  273.68 GHz
     Gaussian Broadening:   0.015 Ry, ngauss=   0
     DOS =  5.643591 states/spin/Ry/Unit Cell at Ef= 20.442941 eV
     lambda(    1)=  0.1226   gamma=   16.57 GHz
     lambda(    2)=  0.1508   gamma=   24.38 GHz
     lambda(    3)=  0.0427   gamma=   16.39 GHz
     lambda(    4)=  0.5273   gamma=  996.48 GHz
     lambda(    5)=  0.3300   gamma=  820.98 GHz
     lambda(    6)=  0.3086   gamma=  774.36 GHz
     lambda(    7)=  0.0292   gamma=  132.74 GHz
     lambda(    8)=  0.0187   gamma=   87.13 GHz
     lambda(    9)=  0.0585   gamma=  284.22 GHz
     lambda(   10)=  0.1097   gamma=  570.93 GHz
     lambda(   11)=  0.0769   gamma=  437.07 GHz
     lambda(   12)=  0.1005   gamma=  650.42 GHz
     lambda(   13)=  0.0265   gamma=  193.61 GHz
     lambda(   14)=  0.0487   gamma=  356.56 GHz
     lambda(   15)=  0.0743   gamma=  601.77 GHz
     lambda(   16)=  0.0269   gamma=  220.75 GHz
     lambda(   17)=  0.0107   gamma=   95.83 GHz
     lambda(   18)=  0.0642   gamma=  579.71 GHz
     lambda(   19)=  0.0269   gamma=  249.32 GHz
     lambda(   20)=  0.0240   gamma=  228.78 GHz
     lambda(   21)=  0.0398   gamma=  386.91 GHz
     lambda(   22)=  0.0533   gamma=  523.03 GHz
     lambda(   23)=  0.0170   gamma=  171.45 GHz
     lambda(   24)=  0.0625   gamma=  672.20 GHz
     lambda(   25)=  0.0752   gamma=  960.83 GHz
     lambda(   26)=  0.0164   gamma=  226.90 GHz
     lambda(   27)=  0.0263   gamma=  376.43 GHz
     lambda(   28)=  0.0305   gamma=  437.71 GHz
     lambda(   29)=  0.0099   gamma=  144.83 GHz
     lambda(   30)=  0.0183   gamma=  274.61 GHz
     lambda(   31)=  0.0147   gamma=  234.31 GHz
     lambda(   32)=  0.0124   gamma=  212.49 GHz
     lambda(   33)=  0.0140   gamma=  300.86 GHz
     Gaussian Broadening:   0.020 Ry, ngauss=   0
     DOS =  5.693100 states/spin/Ry/Unit Cell at Ef= 20.442131 eV
     lambda(    1)=  0.1253   gamma=   17.08 GHz
     lambda(    2)=  0.1523   gamma=   24.84 GHz
     lambda(    3)=  0.0437   gamma=   16.93 GHz
     lambda(    4)=  0.5404   gamma= 1030.12 GHz
     lambda(    5)=  0.3340   gamma=  838.11 GHz
     lambda(    6)=  0.2893   gamma=  732.32 GHz
     lambda(    7)=  0.0312   gamma=  143.23 GHz
     lambda(    8)=  0.0196   gamma=   92.26 GHz
     lambda(    9)=  0.0602   gamma=  295.42 GHz
     lambda(   10)=  0.1091   gamma=  573.13 GHz
     lambda(   11)=  0.0810   gamma=  464.43 GHz
     lambda(   12)=  0.1074   gamma=  701.19 GHz
     lambda(   13)=  0.0282   gamma=  208.26 GHz
     lambda(   14)=  0.0507   gamma=  374.34 GHz
     lambda(   15)=  0.0764   gamma=  624.47 GHz
     lambda(   16)=  0.0289   gamma=  239.02 GHz
     lambda(   17)=  0.0110   gamma=   98.55 GHz
     lambda(   18)=  0.0677   gamma=  617.15 GHz
     lambda(   19)=  0.0267   gamma=  249.56 GHz
     lambda(   20)=  0.0259   gamma=  249.69 GHz
     lambda(   21)=  0.0415   gamma=  406.66 GHz
     lambda(   22)=  0.0549   gamma=  542.78 GHz
     lambda(   23)=  0.0171   gamma=  173.88 GHz
     lambda(   24)=  0.0684   gamma=  742.10 GHz
     lambda(   25)=  0.0758   gamma=  976.95 GHz
     lambda(   26)=  0.0179   gamma=  249.65 GHz
     lambda(   27)=  0.0246   gamma=  354.29 GHz
     lambda(   28)=  0.0300   gamma=  434.40 GHz
     lambda(   29)=  0.0105   gamma=  154.90 GHz
     lambda(   30)=  0.0175   gamma=  266.28 GHz
     lambda(   31)=  0.0155   gamma=  248.75 GHz
     lambda(   32)=  0.0131   gamma=  226.12 GHz
     lambda(   33)=  0.0151   gamma=  326.79 GHz
     Gaussian Broadening:   0.025 Ry, ngauss=   0
     DOS =  5.666404 states/spin/Ry/Unit Cell at Ef= 20.442478 eV
     lambda(    1)=  0.1279   gamma=   17.36 GHz
     lambda(    2)=  0.1531   gamma=   24.86 GHz
     lambda(    3)=  0.0436   gamma=   16.81 GHz
     lambda(    4)=  0.5522   gamma= 1047.76 GHz
     lambda(    5)=  0.3378   gamma=  843.73 GHz
     lambda(    6)=  0.2843   gamma=  716.41 GHz
     lambda(    7)=  0.0322   gamma=  147.21 GHz
     lambda(    8)=  0.0198   gamma=   92.83 GHz
     lambda(    9)=  0.0605   gamma=  295.21 GHz
     lambda(   10)=  0.1089   gamma=  569.24 GHz
     lambda(   11)=  0.0830   gamma=  473.59 GHz
     lambda(   12)=  0.1116   gamma=  725.39 GHz
     lambda(   13)=  0.0288   gamma=  211.66 GHz
     lambda(   14)=  0.0523   gamma=  384.33 GHz
     lambda(   15)=  0.0767   gamma=  623.91 GHz
     lambda(   16)=  0.0304   gamma=  249.95 GHz
     lambda(   17)=  0.0110   gamma=   98.50 GHz
     lambda(   18)=  0.0694   gamma=  629.50 GHz
     lambda(   19)=  0.0266   gamma=  247.88 GHz
     lambda(   20)=  0.0270   gamma=  258.18 GHz
     lambda(   21)=  0.0417   gamma=  407.09 GHz
     lambda(   22)=  0.0548   gamma=  539.40 GHz
     lambda(   23)=  0.0173   gamma=  174.28 GHz
     lambda(   24)=  0.0704   gamma=  759.39 GHz
     lambda(   25)=  0.0757   gamma=  971.67 GHz
     lambda(   26)=  0.0187   gamma=  259.34 GHz
     lambda(   27)=  0.0240   gamma=  344.63 GHz
     lambda(   28)=  0.0295   gamma=  423.91 GHz
     lambda(   29)=  0.0108   gamma=  158.74 GHz
     lambda(   30)=  0.0171   gamma=  258.07 GHz
     lambda(   31)=  0.0161   gamma=  256.81 GHz
     lambda(   32)=  0.0134   gamma=  230.49 GHz
     lambda(   33)=  0.0158   gamma=  341.23 GHz
     Gaussian Broadening:   0.030 Ry, ngauss=   0
     DOS =  5.611139 states/spin/Ry/Unit Cell at Ef= 20.443739 eV
     lambda(    1)=  0.1293   gamma=   17.37 GHz
     lambda(    2)=  0.1532   gamma=   24.64 GHz
     lambda(    3)=  0.0432   gamma=   16.48 GHz
     lambda(    4)=  0.5583   gamma= 1048.92 GHz
     lambda(    5)=  0.3400   gamma=  841.09 GHz
     lambda(    6)=  0.2827   gamma=  705.26 GHz
     lambda(    7)=  0.0327   gamma=  147.79 GHz
     lambda(    8)=  0.0198   gamma=   91.79 GHz
     lambda(    9)=  0.0599   gamma=  289.55 GHz
     lambda(   10)=  0.1083   gamma=  560.45 GHz
     lambda(   11)=  0.0839   gamma=  473.73 GHz
     lambda(   12)=  0.1137   gamma=  731.67 GHz
     lambda(   13)=  0.0289   gamma=  210.26 GHz
     lambda(   14)=  0.0533   gamma=  388.03 GHz
     lambda(   15)=  0.0761   gamma=  613.22 GHz
     lambda(   16)=  0.0314   gamma=  255.98 GHz
     lambda(   17)=  0.0109   gamma=   97.11 GHz
     lambda(   18)=  0.0699   gamma=  627.38 GHz
     lambda(   19)=  0.0264   gamma=  243.75 GHz
     lambda(   20)=  0.0275   gamma=  260.48 GHz
     lambda(   21)=  0.0414   gamma=  400.11 GHz
     lambda(   22)=  0.0543   gamma=  529.94 GHz
     lambda(   23)=  0.0173   gamma=  173.39 GHz
     lambda(   24)=  0.0706   gamma=  754.56 GHz
     lambda(   25)=  0.0754   gamma=  958.61 GHz
     lambda(   26)=  0.0192   gamma=  263.23 GHz
     lambda(   27)=  0.0237   gamma=  337.17 GHz
     lambda(   28)=  0.0289   gamma=  411.12 GHz
     lambda(   29)=  0.0110   gamma=  159.32 GHz
     lambda(   30)=  0.0167   gamma=  250.14 GHz
     lambda(   31)=  0.0164   gamma=  259.95 GHz
     lambda(   32)=  0.0135   gamma=  230.29 GHz
     lambda(   33)=  0.0162   gamma=  345.26 GHz
     Gaussian Broadening:   0.035 Ry, ngauss=   0
     DOS =  5.552244 states/spin/Ry/Unit Cell at Ef= 20.445745 eV
     lambda(    1)=  0.1300   gamma=   17.28 GHz
     lambda(    2)=  0.1527   gamma=   24.29 GHz
     lambda(    3)=  0.0426   gamma=   16.09 GHz
     lambda(    4)=  0.5585   gamma= 1038.44 GHz
     lambda(    5)=  0.3410   gamma=  834.65 GHz
     lambda(    6)=  0.2822   gamma=  696.80 GHz
     lambda(    7)=  0.0328   gamma=  147.13 GHz
     lambda(    8)=  0.0197   gamma=   90.37 GHz
     lambda(    9)=  0.0589   gamma=  281.93 GHz
     lambda(   10)=  0.1075   gamma=  550.61 GHz
     lambda(   11)=  0.0841   gamma=  469.89 GHz
     lambda(   12)=  0.1145   gamma=  729.50 GHz
     lambda(   13)=  0.0289   gamma=  207.88 GHz
     lambda(   14)=  0.0539   gamma=  388.31 GHz
     lambda(   15)=  0.0753   gamma=  600.26 GHz
     lambda(   16)=  0.0322   gamma=  259.53 GHz
     lambda(   17)=  0.0109   gamma=   95.55 GHz
     lambda(   18)=  0.0697   gamma=  619.10 GHz
     lambda(   19)=  0.0262   gamma=  238.97 GHz
     lambda(   20)=  0.0277   gamma=  260.35 GHz
     lambda(   21)=  0.0410   gamma=  392.10 GHz
     lambda(   22)=  0.0540   gamma=  520.77 GHz
     lambda(   23)=  0.0174   gamma=  172.07 GHz
     lambda(   24)=  0.0704   gamma=  744.03 GHz
     lambda(   25)=  0.0751   gamma=  944.36 GHz
     lambda(   26)=  0.0195   gamma=  265.05 GHz
     lambda(   27)=  0.0235   gamma=  330.54 GHz
     lambda(   28)=  0.0283   gamma=  398.76 GHz
     lambda(   29)=  0.0111   gamma=  158.78 GHz
     lambda(   30)=  0.0164   gamma=  242.84 GHz
     lambda(   31)=  0.0166   gamma=  260.30 GHz
     lambda(   32)=  0.0135   gamma=  228.35 GHz
     lambda(   33)=  0.0163   gamma=  343.75 GHz
     Gaussian Broadening:   0.040 Ry, ngauss=   0
     DOS =  5.498034 states/spin/Ry/Unit Cell at Ef= 20.448391 eV
     lambda(    1)=  0.1307   gamma=   17.20 GHz
     lambda(    2)=  0.1516   gamma=   23.89 GHz
     lambda(    3)=  0.0420   gamma=   15.71 GHz
     lambda(    4)=  0.5547   gamma= 1021.15 GHz
     lambda(    5)=  0.3413   gamma=  827.20 GHz
     lambda(    6)=  0.2826   gamma=  690.96 GHz
     lambda(    7)=  0.0330   gamma=  146.20 GHz
     lambda(    8)=  0.0196   gamma=   88.96 GHz
     lambda(    9)=  0.0578   gamma=  274.01 GHz
     lambda(   10)=  0.1068   gamma=  541.78 GHz
     lambda(   11)=  0.0839   gamma=  464.52 GHz
     lambda(   12)=  0.1148   gamma=  723.88 GHz
     lambda(   13)=  0.0289   gamma=  206.02 GHz
     lambda(   14)=  0.0543   gamma=  387.04 GHz
     lambda(   15)=  0.0745   gamma=  588.01 GHz
     lambda(   16)=  0.0328   gamma=  261.78 GHz
     lambda(   17)=  0.0109   gamma=   94.34 GHz
     lambda(   18)=  0.0692   gamma=  608.81 GHz
     lambda(   19)=  0.0260   gamma=  234.58 GHz
     lambda(   20)=  0.0279   gamma=  259.53 GHz
     lambda(   21)=  0.0407   gamma=  385.24 GHz
     lambda(   22)=  0.0537   gamma=  512.87 GHz
     lambda(   23)=  0.0174   gamma=  170.73 GHz
     lambda(   24)=  0.0701   gamma=  733.83 GHz
     lambda(   25)=  0.0748   gamma=  931.09 GHz
     lambda(   26)=  0.0198   gamma=  266.12 GHz
     lambda(   27)=  0.0233   gamma=  324.66 GHz
     lambda(   28)=  0.0278   gamma=  387.85 GHz
     lambda(   29)=  0.0111   gamma=  158.01 GHz
     lambda(   30)=  0.0161   gamma=  236.48 GHz
     lambda(   31)=  0.0167   gamma=  259.50 GHz
     lambda(   32)=  0.0135   gamma=  226.00 GHz
     lambda(   33)=  0.0162   gamma=  340.32 GHz
     Gaussian Broadening:   0.045 Ry, ngauss=   0
     DOS =  5.450225 states/spin/Ry/Unit Cell at Ef= 20.451582 eV
     lambda(    1)=  0.1314   gamma=   17.15 GHz
     lambda(    2)=  0.1502   gamma=   23.45 GHz
     lambda(    3)=  0.0415   gamma=   15.37 GHz
     lambda(    4)=  0.5483   gamma= 1000.57 GHz
     lambda(    5)=  0.3413   gamma=  820.11 GHz
     lambda(    6)=  0.2836   gamma=  687.24 GHz
     lambda(    7)=  0.0331   gamma=  145.35 GHz
     lambda(    8)=  0.0195   gamma=   87.67 GHz
     lambda(    9)=  0.0567   gamma=  266.40 GHz
     lambda(   10)=  0.1063   gamma=  534.47 GHz
     lambda(   11)=  0.0836   gamma=  458.69 GHz
     lambda(   12)=  0.1147   gamma=  716.89 GHz
     lambda(   13)=  0.0290   gamma=  205.00 GHz
     lambda(   14)=  0.0545   gamma=  385.32 GHz
     lambda(   15)=  0.0738   gamma=  577.22 GHz
     lambda(   16)=  0.0332   gamma=  263.19 GHz
     lambda(   17)=  0.0109   gamma=   93.62 GHz
     lambda(   18)=  0.0686   gamma=  598.18 GHz
     lambda(   19)=  0.0258   gamma=  230.91 GHz
     lambda(   20)=  0.0281   gamma=  258.71 GHz
     lambda(   21)=  0.0405   gamma=  379.76 GHz
     lambda(   22)=  0.0534   gamma=  505.87 GHz
     lambda(   23)=  0.0174   gamma=  169.48 GHz
     lambda(   24)=  0.0699   gamma=  725.36 GHz
     lambda(   25)=  0.0745   gamma=  919.03 GHz
     lambda(   26)=  0.0200   gamma=  266.79 GHz
     lambda(   27)=  0.0231   gamma=  319.49 GHz
     lambda(   28)=  0.0274   gamma=  378.58 GHz
     lambda(   29)=  0.0112   gamma=  157.31 GHz
     lambda(   30)=  0.0159   gamma=  231.13 GHz
     lambda(   31)=  0.0168   gamma=  258.45 GHz
     lambda(   32)=  0.0135   gamma=  223.77 GHz
     lambda(   33)=  0.0162   gamma=  336.79 GHz
     Gaussian Broadening:   0.050 Ry, ngauss=   0
     DOS =  5.408705 states/spin/Ry/Unit Cell at Ef= 20.455233 eV
     lambda(    1)=  0.1322   gamma=   17.12 GHz
     lambda(    2)=  0.1484   gamma=   23.00 GHz
     lambda(    3)=  0.0409   gamma=   15.06 GHz
     lambda(    4)=  0.5405   gamma=  978.91 GHz
     lambda(    5)=  0.3414   gamma=  814.00 GHz
     lambda(    6)=  0.2848   gamma=  685.08 GHz
     lambda(    7)=  0.0331   gamma=  144.62 GHz
     lambda(    8)=  0.0193   gamma=   86.49 GHz
     lambda(    9)=  0.0556   gamma=  259.29 GHz
     lambda(   10)=  0.1059   gamma=  528.51 GHz
     lambda(   11)=  0.0832   gamma=  452.88 GHz
     lambda(   12)=  0.1143   gamma=  709.35 GHz
     lambda(   13)=  0.0292   gamma=  204.75 GHz
     lambda(   14)=  0.0547   gamma=  383.76 GHz
     lambda(   15)=  0.0731   gamma=  567.91 GHz
     lambda(   16)=  0.0336   gamma=  264.00 GHz
     lambda(   17)=  0.0109   gamma=   93.35 GHz
     lambda(   18)=  0.0679   gamma=  587.83 GHz
     lambda(   19)=  0.0256   gamma=  227.94 GHz
     lambda(   20)=  0.0282   gamma=  258.13 GHz
     lambda(   21)=  0.0403   gamma=  375.36 GHz
     lambda(   22)=  0.0531   gamma=  499.32 GHz
     lambda(   23)=  0.0175   gamma=  168.35 GHz
     lambda(   24)=  0.0698   gamma=  718.62 GHz
     lambda(   25)=  0.0741   gamma=  907.80 GHz
     lambda(   26)=  0.0202   gamma=  267.06 GHz
     lambda(   27)=  0.0230   gamma=  314.95 GHz
     lambda(   28)=  0.0270   gamma=  370.82 GHz
     lambda(   29)=  0.0112   gamma=  156.72 GHz
     lambda(   30)=  0.0157   gamma=  226.71 GHz
     lambda(   31)=  0.0169   gamma=  257.51 GHz
     lambda(   32)=  0.0135   gamma=  221.80 GHz
     lambda(   33)=  0.0162   gamma=  333.84 GHz
 
 
     Number of q in the star =   24
     List of q in the star:
          1   0.353553391   0.117851130  -0.117851130
          2  -0.353553391   0.117851130   0.117851130
          3   0.353553391   0.117851130   0.117851130
          4   0.353553391  -0.117851130   0.117851130
          5   0.353553391  -0.117851130  -0.117851130
          6  -0.353553391  -0.117851130   0.117851130
          7  -0.353553391   0.117851130  -0.117851130
          8  -0.353553391  -0.117851130  -0.117851130
          9   0.117851130  -0.117851130   0.353553391
         10  -0.117851130  -0.117851130  -0.353553391
         11  -0.117851130  -0.117851130   0.353553391
         12  -0.117851130   0.117851130   0.353553391
         13  -0.117851130   0.353553391   0.117851130
         14  -0.117851130  -0.353553391  -0.117851130
         15   0.117851130  -0.353553391   0.117851130
         16  -0.117851130  -0.353553391   0.117851130
         17   0.117851130  -0.353553391  -0.117851130
         18   0.117851130   0.117851130  -0.353553391
         19  -0.117851130   0.353553391  -0.117851130
         20   0.117851130   0.353553391   0.117851130
         21   0.117851130  -0.117851130  -0.353553391
         22   0.117851130   0.353553391  -0.117851130
         23  -0.117851130   0.117851130  -0.353553391
         24   0.117851130   0.117851130   0.353553391
 
     init_run     :      0.46s CPU      0.79s WALL (       1 calls)
     electrons    :     37.79s CPU     47.38s WALL (       1 calls)

     Called by init_run:
     wfcinit      :      0.00s CPU      0.10s WALL (       1 calls)
     potinit      :      0.23s CPU      0.39s WALL (       1 calls)
     hinit0       :      0.10s CPU      0.10s WALL (       1 calls)

     Called by electrons:
     c_bands      :     37.78s CPU     47.36s WALL (       1 calls)
     v_of_rho     :      0.02s CPU      0.04s WALL (       2 calls)
     newd         :      0.05s CPU      0.08s WALL (       2 calls)
     PAW_pot      :      0.41s CPU      0.50s WALL (       2 calls)

     Called by c_bands:
     init_us_2    :      9.25s CPU     10.73s WALL (  100386 calls)
     cegterg      :     21.91s CPU     23.06s WALL (     853 calls)

     Called by *egterg:
     cdiaghg      :      7.02s CPU      7.33s WALL (   13552 calls)
     h_psi        :   2293.43s CPU   3123.59s WALL ( 1379048 calls)
     s_psi        :     58.31s CPU     63.57s WALL ( 2819507 calls)
     g_psi        :      0.07s CPU      0.07s WALL (   13084 calls)

     Called by h_psi:
     h_psi:calbec :     40.90s CPU     44.52s WALL ( 1379048 calls)
     vloc_psi     :   2211.92s CPU   3034.83s WALL ( 1379048 calls)
     add_vuspsi   :     29.94s CPU     32.70s WALL ( 1379048 calls)

     General routines
     calbec       :    183.89s CPU    192.59s WALL ( 2937209 calls)
     fft          :      2.55s CPU      3.31s WALL (    6675 calls)
     ffts         :    160.02s CPU    255.33s WALL (    9527 calls)
     fftw         :   3323.98s CPU   4873.71s WALL (23676684 calls)
     interpolate  :      1.08s CPU      1.56s WALL (     683 calls)
     davcio       :     33.86s CPU   1625.82s WALL (  423858 calls)
 
     Parallel routines
 
     PHONON       :      1h58m CPU      3h 0m WALL

     INITIALIZATION: 
     phq_setup    :      0.03s CPU      0.06s WALL (       1 calls)
     phq_init     :     38.49s CPU     44.83s WALL (       1 calls)
 
     phq_init     :     38.49s CPU     44.83s WALL (       1 calls)
     set_drhoc    :      0.00s CPU      0.00s WALL (       3 calls)
     init_vloc    :      0.01s CPU      0.03s WALL (       2 calls)
     init_us_1    :      0.15s CPU      0.23s WALL (       2 calls)
     init_us_2    :      9.25s CPU     10.73s WALL (  100386 calls)
     newd         :      0.05s CPU      0.08s WALL (       2 calls)
     dvanqq       :      1.31s CPU      1.32s WALL (       1 calls)
     drho         :     26.84s CPU     31.59s WALL (       1 calls)
     drhous       :     12.95s CPU     15.70s WALL (       1 calls)
     nldyntot     :      0.93s CPU      0.94s WALL (       1 calls)
 
     DYNAMICAL MATRIX:
     dynmat0      :      5.08s CPU      5.90s WALL (       1 calls)
     dynmat_us    :      5.03s CPU      5.82s WALL (       1 calls)
     addusdynmat  :      0.00s CPU      0.00s WALL (       1 calls)
     d2ionq       :      0.04s CPU      0.04s WALL (       1 calls)
     dynmatcc     :      0.01s CPU      0.01s WALL (       1 calls)
     phqscf       :   7017.93s CPU  10687.21s WALL (       1 calls)
     dynmatrix    :      0.23s CPU      0.31s WALL (       1 calls)
 
     phqscf       :   7017.93s CPU  10687.21s WALL (       1 calls)
     solve_linter :   6917.16s CPU  10550.79s WALL (      33 calls)
     sth_kernel   :   6092.34s CPU   8999.16s WALL (     324 calls)
     h_prec       :   1884.44s CPU   1916.53s WALL (   75816 calls)
     apply_dpot_b :    800.88s CPU   1266.24s WALL (   75816 calls)
     ortho        :    114.87s CPU    117.56s WALL (   75816 calls)
     cgsolve      :   2459.10s CPU   3304.78s WALL (   75816 calls)
     incdrhoscf   :    544.49s CPU    828.05s WALL (   75816 calls)
                                        0.00s GPU  (   75816 calls)
     addusddens   :     35.22s CPU     44.18s WALL (     357 calls)
     vpsifft      :    156.81s CPU    253.14s WALL (    7722 calls)
     dv_of_drho   :      2.98s CPU      3.41s WALL (     324 calls)
     mix_pot      :     56.93s CPU    191.10s WALL (     324 calls)
     drhodv       :    100.69s CPU    116.55s WALL (      33 calls)
     psymdvscf    :     38.02s CPU     38.54s WALL (     324 calls)
     newdq        :     28.62s CPU     28.90s WALL (     324 calls)
     adddvscf     :      9.42s CPU     10.30s WALL (   75816 calls)
     com_dvloc    :    159.42s CPU    254.35s WALL (    8844 calls)
                                        0.00s GPU  (    8844 calls)
     addcore      :      0.48s CPU      0.58s WALL (    1446 calls)
                                        0.00s GPU  (    1446 calls)
     drhodvus     :     18.51s CPU     48.07s WALL (      33 calls)
 
     dvqpsi_us    :    193.20s CPU    290.02s WALL (    7722 calls)
                                        0.00s GPU  (    7722 calls)
     dvqpsi_us_on :     22.80s CPU     23.14s WALL (    7722 calls)
 
     add_vuspsi   :     29.94s CPU     32.70s WALL ( 1379048 calls)
     addusdbec    :      4.85s CPU      5.22s WALL (   83538 calls)
 
     drhodvus     :     18.51s CPU     48.07s WALL (      33 calls)
 
      Electron-phonon coupling
     elphel       :    185.77s CPU    350.17s WALL (      33 calls)
     elphsum      :     27.46s CPU     28.23s WALL (       1 calls)
 
      General routines
     calbec       :    183.89s CPU    192.59s WALL ( 2937209 calls)
     fft          :      2.55s CPU      3.31s WALL (    6675 calls)
     ffts         :    160.02s CPU    255.33s WALL (    9527 calls)
     fftw         :   3323.98s CPU   4873.71s WALL (23676684 calls)
     davcio       :     33.86s CPU   1625.82s WALL (  423858 calls)
     write_rec    :      0.52s CPU    218.52s WALL (     357 calls)
 
      Additional routines
     ch_psi       :   2432.73s CPU   3275.66s WALL ( 1364643 calls)
     last         :    108.40s CPU    118.11s WALL ( 1364643 calls)
     Hesh         :      3.80s CPU      4.24s WALL ( 1364643 calls)
     ch_psi_all_k :     98.25s CPU    107.05s WALL ( 1364643 calls)
                                        0.00s GPU  ( 1364643 calls)
     ch_psi_calbe :     32.70s CPU     35.43s WALL ( 1364643 calls)
                                        0.00s GPU  ( 1364643 calls)
     h_psi_bgrp   :   2296.26s CPU   3126.59s WALL ( 1379048 calls)
     h_psi        :   2293.43s CPU   3123.59s WALL ( 1379048 calls)
     h_psi:pot    :   2288.76s CPU   3118.36s WALL ( 1379048 calls)
     h_psi:calbec :     40.90s CPU     44.52s WALL ( 1379048 calls)
     s_psi_bgrp   :     67.16s CPU     73.11s WALL ( 2819507 calls)
     s_psi        :     58.31s CPU     63.57s WALL ( 2819507 calls)
 
 
     PHONON       :      1h58m CPU      3h 0m WALL

 
   This run was terminated on:  16:53: 5  22Oct2025            

=------------------------------------------------------------------------------=
   JOB DONE.
=------------------------------------------------------------------------------=
