
     Program PHONON v.7.4.1 starts on 22Oct2025 at 13:31:41 

     This program is part of the open-source Quantum ESPRESSO suite
     for quantum simulation of materials; please cite
         "P. Giannozzi et al., J. Phys.:Condens. Matter 21 395502 (2009);
         "P. Giannozzi et al., J. Phys.:Condens. Matter 29 465901 (2017);
         "P. Giannozzi et al., J. Chem. Phys. 152 154105 (2020);
          URL http://www.quantum-espresso.org", 
     in publications or presentations arising from this work. More details at
     http://www.quantum-espresso.org/quote

     Parallel version (MPI), running on    48 processors

     MPI processes distributed on     1 nodes
     180862 MiB available memory on the printing compute node when the environment starts
 
     Waiting for input...
     Reading input from standard input

     Reading xml data from directory:

     ./tmp/La1H10.save/
 
     K-points division:     npool     =       4
     R & G space division:  proc/nbgrp/npool/nimage =      12
     Subspace diagonalization in iterative solution of the eigenvalue problem:
     a serial algorithm will be used

     file La.pbe-spfn-kjpaw_psl.1.0.0.UPF: wavefunction(s)  5S 5D 4F renormalized
     file H.pbe-kjpaw_psl.1.0.0.UPF: wavefunction(s)  1S renormalized

     IMPORTANT: XC functional enforced from input :
     Exchange-correlation= PBE
                           (   1   4   3   4   0   0   0)
     Any further DFT definition will be discarded
     Please, verify this is what you really want

 
     Parallelization info
     --------------------
     sticks:   dense  smooth     PW     G-vecs:    dense   smooth      PW
     Min         231      77     23                 8029     1540     259
     Max         232      78     24                 8031     1543     261
     Sum        2773     925    283                96353    18499    3119
 
     Using Slab Decomposition
 
     Reading collected, re-writing distributed wavefunctions in ./tmp/


     Dynamical matrices for ( 6, 6, 6)  uniform grid of q-points
     (  16 q-points):
       N         xq(1)         xq(2)         xq(3) 
       1   0.000000000   0.000000000   0.000000000
       2   0.117851130   0.117851130  -0.117851130
       3   0.235702260   0.235702260  -0.235702260
       4  -0.353553391  -0.353553391   0.353553391
       5   0.235702260   0.000000000   0.000000000
       6   0.353553391   0.117851130  -0.117851130
       7  -0.235702260  -0.471404521   0.471404521
       8  -0.117851130  -0.353553391   0.353553391
       9   0.000000000  -0.235702260   0.235702260
      10   0.471404521   0.000000000   0.000000000
      11  -0.117851130  -0.589255651   0.589255651
      12  -0.000000000  -0.471404521   0.471404521
      13  -0.707106781   0.000000000   0.000000000
      14  -0.235702260  -0.471404521   0.707106781
      15  -0.117851130  -0.353553391   0.589255651
      16  -0.707106781   0.235702260   0.000000000

     Number and degeneracy of irreps per q-point
       N         xq(1)         xq(2)         xq(3)   N irreps
       1   0.000000000   0.000000000   0.000000000      13
        1   2   3   3   3   3   1   2   3   3   3   3   3
       2   0.117851130   0.117851130  -0.117851130      22
        1   1   1   1   1   1   1   1   1   1   1   2   2   2   2   2   2   2
   2   2   2   2
       3   0.235702260   0.235702260  -0.235702260      22
        1   1   1   1   1   1   1   1   1   1   1   2   2   2   2   2   2   2
   2   2   2   2
       4  -0.353553391  -0.353553391   0.353553391      22
        1   1   1   1   1   2   2   2   2   2   1   1   1   1   1   1   2   2
   2   2   2   2
       5   0.235702260   0.000000000   0.000000000      24
        1   1   1   1   1   1   1   1   1   1   1   1   1   1   1   2   2   2
   2   2   2   2   2   2
       6   0.353553391   0.117851130  -0.117851130      33
     No degeneracy
       7  -0.235702260  -0.471404521   0.471404521      33
     No degeneracy
       8  -0.117851130  -0.353553391   0.353553391      33
     No degeneracy
       9   0.000000000  -0.235702260   0.235702260      33
     No degeneracy
      10   0.471404521   0.000000000   0.000000000      24
        1   1   1   1   1   1   1   1   1   1   1   1   1   1   1   2   2   2
   2   2   2   2   2   2
      11  -0.117851130  -0.589255651   0.589255651      33
     No degeneracy
      12  -0.000000000  -0.471404521   0.471404521      33
     No degeneracy
      13  -0.707106781   0.000000000   0.000000000      24
        1   1   1   1   1   1   1   2   2   2   2   1   1   1   1   1   1   1
   1   2   2   2   2   2
      14  -0.235702260  -0.471404521   0.707106781      33
     No degeneracy
      15  -0.117851130  -0.353553391   0.589255651      33
     No degeneracy
Eigenvectors exchange needed    7   16
      16  -0.707106781   0.235702260   0.000000000      32
        1   1   1   1   1   1   2   1   1   1   1   1   1   1   1   1   1   1
   1   1   1   1   1   1   1   1   1   1   1   1   1   1

     Saving dvscf to file. Distribute only q points, not irreducible representations.

     Calculation of q =   -0.3535534  -0.3535534   0.3535534
 
     Parallelization info
     --------------------
     sticks:   dense  smooth     PW     G-vecs:    dense   smooth      PW
     Min         231      77     26                 8029     1540     307
     Max         232      78     27                 8031     1543     310
     Sum        2773     925    313                96353    18499    3695
 
     Using Slab Decomposition
 

     Title: 
     Electron-phonon coefficients for La1H10                                    


     bravais-lattice index     =            0
     lattice parameter (alat)  =       6.4716  a.u.
     unit-cell volume          =     191.6541 (a.u.)^3
     number of atoms/cell      =           11
     number of atomic types    =            2
     number of electrons       =        21.00
     number of Kohn-Sham states=           15
     kinetic-energy cutoff     =      80.0000  Ry
     charge density cutoff     =     960.0000  Ry
     Exchange-correlation= PBE
                           (   1   4   3   4   0   0   0)

     celldm(1)=   6.471590  celldm(2)=   0.000000  celldm(3)=   0.000000
     celldm(4)=   0.000000  celldm(5)=   0.000000  celldm(6)=   0.000000

     crystal axes: (cart. coord. in units of alat)
               a(1) = (   0.000000   0.707107   0.707107 )  
               a(2) = (   0.707107   0.000000   0.707107 )  
               a(3) = (   0.707107   0.707107   0.000000 )  

     reciprocal axes: (cart. coord. in units 2 pi/alat)
               b(1) = ( -0.707107  0.707107  0.707107 )  
               b(2) = (  0.707107 -0.707107  0.707107 )  
               b(3) = (  0.707107  0.707107 -0.707107 )  


     PseudoPot. # 1 for La read from file:
     /work/home/mayuan/workplace/1.typical_hydride/003.MH10/1.LaH10/250/Tc-666-paw/pp/La.pbe-spfn-kjpaw_psl.1.0.0.UPF
     MD5 check sum: ccc10218a00d76b68822f6b8f5772390
     Pseudo is Projector augmented-wave + core cor, Zval = 11.0
     Generated using 'atomic' code by A. Dal Corso  v.7.1
     Shape of augmentation charge: PSQ
     Using radial grid of 1253 points,  8 beta functions with: 
                l(1) =   0
                l(2) =   0
                l(3) =   1
                l(4) =   1
                l(5) =   2
                l(6) =   2
                l(7) =   3
                l(8) =   3
     Q(r) pseudized with 0 coefficients 


     PseudoPot. # 2 for H  read from file:
     /work/home/mayuan/workplace/1.typical_hydride/003.MH10/1.LaH10/250/Tc-666-paw/pp/H.pbe-kjpaw_psl.1.0.0.UPF
     MD5 check sum: 3bb27c602ede137025941d095c9090b7
     Pseudo is Projector augmented-wave, Zval =  1.0
     Generated using 'atomic' code by A. Dal Corso  v.7.1
     Shape of augmentation charge: PSQ
     Using radial grid of  929 points,  2 beta functions with: 
                l(1) =   0
                l(2) =   0
     Q(r) pseudized with 0 coefficients 


     atomic species   valence    mass     pseudopotential
     La               11.00   138.90547     La( 1.00)
     H                 1.00     1.00794     H ( 1.00)

     48 Sym. Ops., with inversion, found



   Cartesian axes

     site n.     atom                  positions (alat units)
         1        La     tau(   1) = (   0.0000000   0.0000000   0.0000000  )
         2        H      tau(   2) = (   0.3535534   0.3535534   0.3535534  )
         3        H      tau(   3) = (   1.0606602   1.0606602   1.0606602  )
         4        H      tau(   4) = (   0.8776866   0.8776866   0.8776866  )
         5        H      tau(   5) = (   0.5365270   0.5365270   0.5365270  )
         6        H      tau(   6) = (   0.5365270   0.5365270   0.8776866  )
         7        H      tau(   7) = (   0.8776866   0.8776866   0.5365270  )
         8        H      tau(   8) = (   0.5365270   0.8776866   0.5365270  )
         9        H      tau(   9) = (   0.8776866   0.5365270   0.8776866  )
        10        H      tau(  10) = (   0.8776866   0.5365270   0.5365270  )
        11        H      tau(  11) = (   0.5365270   0.8776866   0.8776866  )

     number of k points=   378  Gaussian smearing, width (Ry)=  0.0200

     Number of k-points >= 100: set verbosity='high' to print them.

     Dense  grid:    96353 G-vectors     FFT dimensions: (  64,  64,  64)

     Smooth grid:    18499 G-vectors     FFT dimensions: (  40,  40,  40)

     Estimated max dynamical RAM per process >      32.71 MB

     Estimated total dynamical RAM >       1.53 GB

     The potential is recalculated from file :
     ./tmp/_ph0/La1H10.q_4/La1H10.save/charge-density

     Starting wfcs are   30 atomic wfcs
     Checking if some PAW data can be deallocated... 

     Band Structure Calculation
     Davidson diagonalization with overlap

     ethr =  4.76E-11,  avg # of iterations = 29.3

     total cpu time spent up to now is       11.6 secs

     End of band structure calculation

     Number of k-points >= 100: set verbosity='high' to print the bands.

     the Fermi energy is    20.4236 ev

     Writing config to output data dir ./tmp/_ph0/La1H10.q_4/La1H10.save/ :
     XML data file

     Electron-phonon coefficients for La1H10                                    

     bravais-lattice index     =            0
     lattice parameter (alat)  =       6.4716  a.u.
     unit-cell volume          =     191.6541 (a.u.)^3
     number of atoms/cell      =           11
     number of atomic types    =            2
     kinetic-energy cut-off    =      80.0000  Ry
     charge density cut-off    =     960.0000  Ry
     convergence threshold     =      1.0E-14
     beta                      =       0.3000
     number of iterations used =            4
     Exchange-correlation= PBE
                           (   1   4   3   4   0   0   0)


     celldm(1)=    6.47159  celldm(2)=    0.00000  celldm(3)=    0.00000
     celldm(4)=    0.00000  celldm(5)=    0.00000  celldm(6)=    0.00000

     crystal axes: (cart. coord. in units of alat)
               a(1) = (  0.0000  0.7071  0.7071 )  
               a(2) = (  0.7071  0.0000  0.7071 )  
               a(3) = (  0.7071  0.7071  0.0000 )  

     reciprocal axes: (cart. coord. in units 2 pi/alat)
               b(1) = ( -0.7071  0.7071  0.7071 )  
               b(2) = (  0.7071 -0.7071  0.7071 )  
               b(3) = (  0.7071  0.7071 -0.7071 )  


     Atoms inside the unit cell: 

     Cartesian axes

     site n.  atom      mass           positions (alat units)
        1  La    138.9055   tau(    1) = (    0.00000    0.00000    0.00000  )
        2  H       1.0079   tau(    2) = (    0.35355    0.35355    0.35355  )
        3  H       1.0079   tau(    3) = (    1.06066    1.06066    1.06066  )
        4  H       1.0079   tau(    4) = (    0.87769    0.87769    0.87769  )
        5  H       1.0079   tau(    5) = (    0.53653    0.53653    0.53653  )
        6  H       1.0079   tau(    6) = (    0.53653    0.53653    0.87769  )
        7  H       1.0079   tau(    7) = (    0.87769    0.87769    0.53653  )
        8  H       1.0079   tau(    8) = (    0.53653    0.87769    0.53653  )
        9  H       1.0079   tau(    9) = (    0.87769    0.53653    0.87769  )
       10  H       1.0079   tau(   10) = (    0.87769    0.53653    0.53653  )
       11  H       1.0079   tau(   11) = (    0.53653    0.87769    0.87769  )

     Computing dynamical matrix for 
                    q = (  -0.3535534  -0.3535534   0.3535534 )
 
     13 Sym.Ops. (with q -> -q+G )


     G cutoff = 1018.4355  (   8029 G-vectors)     FFT grid: ( 64, 64, 64)
     G cutoff =  339.4785  (   1542 G-vectors)  smooth grid: ( 40, 40, 40)

     number of k points=   378  Gaussian smearing, width (Ry)=  0.0200

     PseudoPot. # 1 for La read from file:
     /work/home/mayuan/workplace/1.typical_hydride/003.MH10/1.LaH10/250/Tc-666-paw/pp/La.pbe-spfn-kjpaw_psl.1.0.0.UPF
     MD5 check sum: ccc10218a00d76b68822f6b8f5772390
     Pseudo is Projector augmented-wave + core cor, Zval = 11.0
     Generated using 'atomic' code by A. Dal Corso  v.7.1
     Shape of augmentation charge: PSQ
     Using radial grid of 1253 points,  8 beta functions with: 
                l(1) =   0
                l(2) =   0
                l(3) =   1
                l(4) =   1
                l(5) =   2
                l(6) =   2
                l(7) =   3
                l(8) =   3
     Q(r) pseudized with 0 coefficients 


     PseudoPot. # 2 for H  read from file:
     /work/home/mayuan/workplace/1.typical_hydride/003.MH10/1.LaH10/250/Tc-666-paw/pp/H.pbe-kjpaw_psl.1.0.0.UPF
     MD5 check sum: 3bb27c602ede137025941d095c9090b7
     Pseudo is Projector augmented-wave, Zval =  1.0
     Generated using 'atomic' code by A. Dal Corso  v.7.1
     Shape of augmentation charge: PSQ
     Using radial grid of  929 points,  2 beta functions with: 
                l(1) =   0
                l(2) =   0
     Q(r) pseudized with 0 coefficients 


     Mode symmetry, D_3d (-3m)  point group:


     Atomic displacements:
     There are   22 irreducible representations

     Representation     1      1 modes -  To be done

     Representation     2      1 modes -  To be done

     Representation     3      1 modes -  To be done

     Representation     4      1 modes -  To be done

     Representation     5      1 modes -  To be done

     Representation     6      2 modes -  To be done

     Representation     7      2 modes -  To be done

     Representation     8      2 modes -  To be done

     Representation     9      2 modes -  To be done

     Representation    10      2 modes -  To be done

     Representation    11      1 modes -  To be done

     Representation    12      1 modes -  To be done

     Representation    13      1 modes -  To be done

     Representation    14      1 modes -  To be done

     Representation    15      1 modes -  To be done

     Representation    16      1 modes -  To be done

     Representation    17      2 modes -  To be done

     Representation    18      2 modes -  To be done

     Representation    19      2 modes -  To be done

     Representation    20      2 modes -  To be done

     Representation    21      2 modes -  To be done

     Representation    22      2 modes -  To be done


     Message from routine init_vloc:
     Interpolation table for Vloc re-allocated

     Alpha used in Ewald sum =   2.8000
     PHONON       :     18.20s CPU     34.73s WALL



     Representation #   1 mode #   1

     Self-consistent Calculation

      iter #   1 total cpu time :    41.7 secs   av.it.:   5.8
      thresh= 1.000E-02 alpha_mix =  0.300 |ddv_scf|^2 =  7.930E-06

      iter #   2 total cpu time :    49.7 secs   av.it.:  10.9
      thresh= 2.816E-04 alpha_mix =  0.300 |ddv_scf|^2 =  3.613E-06

      iter #   3 total cpu time :    60.3 secs   av.it.:  10.4
      thresh= 1.901E-04 alpha_mix =  0.300 |ddv_scf|^2 =  2.329E-09

      iter #   4 total cpu time :    71.1 secs   av.it.:  11.5
      thresh= 4.826E-06 alpha_mix =  0.300 |ddv_scf|^2 =  2.041E-10

      iter #   5 total cpu time :    81.6 secs   av.it.:  11.9
      thresh= 1.428E-06 alpha_mix =  0.300 |ddv_scf|^2 =  2.019E-11

      iter #   6 total cpu time :    91.1 secs   av.it.:  12.1
      thresh= 4.494E-07 alpha_mix =  0.300 |ddv_scf|^2 =  2.526E-12

      iter #   7 total cpu time :    99.7 secs   av.it.:  12.0
      thresh= 1.589E-07 alpha_mix =  0.300 |ddv_scf|^2 =  5.993E-14

      iter #   8 total cpu time :   109.8 secs   av.it.:  11.9
      thresh= 2.448E-08 alpha_mix =  0.300 |ddv_scf|^2 =  4.356E-15

     End of self-consistent calculation

     Convergence has been achieved 


     Representation #   2 mode #   2

     Self-consistent Calculation

      iter #   1 total cpu time :   122.3 secs   av.it.:   4.7
      thresh= 1.000E-02 alpha_mix =  0.300 |ddv_scf|^2 =  5.379E-07

      iter #   2 total cpu time :   129.5 secs   av.it.:  10.9
      thresh= 7.334E-05 alpha_mix =  0.300 |ddv_scf|^2 =  2.308E-07

      iter #   3 total cpu time :   136.2 secs   av.it.:  10.4
      thresh= 4.804E-05 alpha_mix =  0.300 |ddv_scf|^2 =  1.539E-09

      iter #   4 total cpu time :   143.9 secs   av.it.:  11.6
      thresh= 3.923E-06 alpha_mix =  0.300 |ddv_scf|^2 =  1.666E-10

      iter #   5 total cpu time :   150.9 secs   av.it.:  11.9
      thresh= 1.291E-06 alpha_mix =  0.300 |ddv_scf|^2 =  7.734E-12

      iter #   6 total cpu time :   157.6 secs   av.it.:  11.2
      thresh= 2.781E-07 alpha_mix =  0.300 |ddv_scf|^2 =  1.621E-12

      iter #   7 total cpu time :   164.6 secs   av.it.:  12.0
      thresh= 1.273E-07 alpha_mix =  0.300 |ddv_scf|^2 =  6.349E-14

      iter #   8 total cpu time :   171.9 secs   av.it.:  11.2
      thresh= 2.520E-08 alpha_mix =  0.300 |ddv_scf|^2 =  2.211E-14

      iter #   9 total cpu time :   178.5 secs   av.it.:  12.1
      thresh= 1.487E-08 alpha_mix =  0.300 |ddv_scf|^2 =  6.487E-16

     End of self-consistent calculation

     Convergence has been achieved 


     Representation #   3 mode #   3

     Self-consistent Calculation

      iter #   1 total cpu time :   188.1 secs   av.it.:   5.0
      thresh= 1.000E-02 alpha_mix =  0.300 |ddv_scf|^2 =  1.470E-06

      iter #   2 total cpu time :   195.0 secs   av.it.:  10.9
      thresh= 1.213E-04 alpha_mix =  0.300 |ddv_scf|^2 =  6.802E-07

      iter #   3 total cpu time :   201.7 secs   av.it.:  10.4
      thresh= 8.247E-05 alpha_mix =  0.300 |ddv_scf|^2 =  1.490E-09

      iter #   4 total cpu time :   208.4 secs   av.it.:  12.1
      thresh= 3.860E-06 alpha_mix =  0.300 |ddv_scf|^2 =  5.048E-11

      iter #   5 total cpu time :   217.5 secs   av.it.:  11.5
      thresh= 7.105E-07 alpha_mix =  0.300 |ddv_scf|^2 =  1.307E-11

      iter #   6 total cpu time :   227.2 secs   av.it.:  11.9
      thresh= 3.615E-07 alpha_mix =  0.300 |ddv_scf|^2 =  4.687E-13

      iter #   7 total cpu time :   233.9 secs   av.it.:  11.6
      thresh= 6.846E-08 alpha_mix =  0.300 |ddv_scf|^2 =  6.323E-14

      iter #   8 total cpu time :   240.2 secs   av.it.:  11.8
      thresh= 2.514E-08 alpha_mix =  0.300 |ddv_scf|^2 =  7.628E-15

     End of self-consistent calculation

     Convergence has been achieved 


     Representation #   4 mode #   4

     Self-consistent Calculation

      iter #   1 total cpu time :   251.3 secs   av.it.:   4.8
      thresh= 1.000E-02 alpha_mix =  0.300 |ddv_scf|^2 =  1.073E-07

      iter #   2 total cpu time :   257.9 secs   av.it.:  11.4
      thresh= 3.276E-05 alpha_mix =  0.300 |ddv_scf|^2 =  4.425E-08

      iter #   3 total cpu time :   264.0 secs   av.it.:  10.7
      thresh= 2.104E-05 alpha_mix =  0.300 |ddv_scf|^2 =  3.539E-09

      iter #   4 total cpu time :   271.7 secs   av.it.:  11.8
      thresh= 5.949E-06 alpha_mix =  0.300 |ddv_scf|^2 =  1.891E-10

      iter #   5 total cpu time :   279.3 secs   av.it.:  12.1
      thresh= 1.375E-06 alpha_mix =  0.300 |ddv_scf|^2 =  1.043E-11

      iter #   6 total cpu time :   286.7 secs   av.it.:  11.5
      thresh= 3.229E-07 alpha_mix =  0.300 |ddv_scf|^2 =  1.620E-12

      iter #   7 total cpu time :   293.7 secs   av.it.:  11.4
      thresh= 1.273E-07 alpha_mix =  0.300 |ddv_scf|^2 =  2.027E-14

      iter #   8 total cpu time :   301.6 secs   av.it.:  10.8
      thresh= 1.424E-08 alpha_mix =  0.300 |ddv_scf|^2 =  9.254E-15

     End of self-consistent calculation

     Convergence has been achieved 


     Representation #   5 mode #   5

     Self-consistent Calculation

      iter #   1 total cpu time :   312.2 secs   av.it.:   4.3
      thresh= 1.000E-02 alpha_mix =  0.300 |ddv_scf|^2 =  2.485E-09

      iter #   2 total cpu time :   320.6 secs   av.it.:  11.4
      thresh= 4.985E-06 alpha_mix =  0.300 |ddv_scf|^2 =  1.131E-09

      iter #   3 total cpu time :   328.1 secs   av.it.:  11.9
      thresh= 3.363E-06 alpha_mix =  0.300 |ddv_scf|^2 =  3.287E-12

      iter #   4 total cpu time :   334.2 secs   av.it.:  11.5
      thresh= 1.813E-07 alpha_mix =  0.300 |ddv_scf|^2 =  2.615E-13

      iter #   5 total cpu time :   340.0 secs   av.it.:  10.9
      thresh= 5.114E-08 alpha_mix =  0.300 |ddv_scf|^2 =  1.300E-15

     End of self-consistent calculation

     Convergence has been achieved 


     Representation #   6 modes #   6   7

     Self-consistent Calculation

      iter #   1 total cpu time :   356.4 secs   av.it.:   4.7
      thresh= 1.000E-02 alpha_mix =  0.300 |ddv_scf|^2 =  4.907E-09

      iter #   2 total cpu time :   368.5 secs   av.it.:  12.4
      thresh= 7.005E-06 alpha_mix =  0.300 |ddv_scf|^2 =  1.122E-09

      iter #   3 total cpu time :   381.2 secs   av.it.:  13.3
      thresh= 3.349E-06 alpha_mix =  0.300 |ddv_scf|^2 =  5.153E-11

      iter #   4 total cpu time :   392.7 secs   av.it.:  13.2
      thresh= 7.178E-07 alpha_mix =  0.300 |ddv_scf|^2 =  1.975E-12

      iter #   5 total cpu time :   404.9 secs   av.it.:  13.1
      thresh= 1.405E-07 alpha_mix =  0.300 |ddv_scf|^2 =  2.918E-13

      iter #   6 total cpu time :   417.2 secs   av.it.:  13.6
      thresh= 5.402E-08 alpha_mix =  0.300 |ddv_scf|^2 =  7.567E-15

     End of self-consistent calculation

     Convergence has been achieved 


     Representation #   7 modes #   8   9

     Self-consistent Calculation

      iter #   1 total cpu time :   436.3 secs   av.it.:   4.6
      thresh= 1.000E-02 alpha_mix =  0.300 |ddv_scf|^2 =  7.414E-09

      iter #   2 total cpu time :   448.1 secs   av.it.:  12.3
      thresh= 8.611E-06 alpha_mix =  0.300 |ddv_scf|^2 =  1.408E-09

      iter #   3 total cpu time :   459.6 secs   av.it.:  13.0
      thresh= 3.753E-06 alpha_mix =  0.300 |ddv_scf|^2 =  4.973E-11

      iter #   4 total cpu time :   470.2 secs   av.it.:  13.2
      thresh= 7.052E-07 alpha_mix =  0.300 |ddv_scf|^2 =  1.841E-12

      iter #   5 total cpu time :   483.0 secs   av.it.:  13.0
      thresh= 1.357E-07 alpha_mix =  0.300 |ddv_scf|^2 =  3.477E-13

      iter #   6 total cpu time :   495.6 secs   av.it.:  13.4
      thresh= 5.897E-08 alpha_mix =  0.300 |ddv_scf|^2 =  9.399E-15

     End of self-consistent calculation

     Convergence has been achieved 


     Representation #   8 modes #  10  11

     Self-consistent Calculation

      iter #   1 total cpu time :   515.4 secs   av.it.:   4.3
      thresh= 1.000E-02 alpha_mix =  0.300 |ddv_scf|^2 =  1.968E-09

      iter #   2 total cpu time :   526.5 secs   av.it.:  12.4
      thresh= 4.436E-06 alpha_mix =  0.300 |ddv_scf|^2 =  6.072E-10

      iter #   3 total cpu time :   537.0 secs   av.it.:  13.2
      thresh= 2.464E-06 alpha_mix =  0.300 |ddv_scf|^2 =  2.129E-11

      iter #   4 total cpu time :   550.5 secs   av.it.:  13.3
      thresh= 4.614E-07 alpha_mix =  0.300 |ddv_scf|^2 =  1.545E-12

      iter #   5 total cpu time :   562.7 secs   av.it.:  13.1
      thresh= 1.243E-07 alpha_mix =  0.300 |ddv_scf|^2 =  2.626E-13

      iter #   6 total cpu time :   574.4 secs   av.it.:  13.6
      thresh= 5.125E-08 alpha_mix =  0.300 |ddv_scf|^2 =  1.306E-14

      iter #   7 total cpu time :   586.6 secs   av.it.:  13.7
      thresh= 1.143E-08 alpha_mix =  0.300 |ddv_scf|^2 =  6.055E-17

     End of self-consistent calculation

     Convergence has been achieved 


     Representation #   9 modes #  12  13

     Self-consistent Calculation

      iter #   1 total cpu time :   604.2 secs   av.it.:   4.2
      thresh= 1.000E-02 alpha_mix =  0.300 |ddv_scf|^2 =  2.085E-09

      iter #   2 total cpu time :   616.7 secs   av.it.:  12.4
      thresh= 4.567E-06 alpha_mix =  0.300 |ddv_scf|^2 =  5.422E-10

      iter #   3 total cpu time :   628.9 secs   av.it.:  12.9
      thresh= 2.328E-06 alpha_mix =  0.300 |ddv_scf|^2 =  4.484E-11

      iter #   4 total cpu time :   640.3 secs   av.it.:  13.1
      thresh= 6.696E-07 alpha_mix =  0.300 |ddv_scf|^2 =  1.159E-12

      iter #   5 total cpu time :   652.0 secs   av.it.:  13.1
      thresh= 1.077E-07 alpha_mix =  0.300 |ddv_scf|^2 =  1.654E-13

      iter #   6 total cpu time :   663.2 secs   av.it.:  13.4
      thresh= 4.067E-08 alpha_mix =  0.300 |ddv_scf|^2 =  9.492E-15

     End of self-consistent calculation

     Convergence has been achieved 


     Representation #  10 modes #  14  15

     Self-consistent Calculation

      iter #   1 total cpu time :   681.7 secs   av.it.:   4.8
      thresh= 1.000E-02 alpha_mix =  0.300 |ddv_scf|^2 =  1.335E-08

      iter #   2 total cpu time :   693.4 secs   av.it.:  12.2
      thresh= 1.155E-05 alpha_mix =  0.300 |ddv_scf|^2 =  2.309E-09

      iter #   3 total cpu time :   705.5 secs   av.it.:  13.0
      thresh= 4.805E-06 alpha_mix =  0.300 |ddv_scf|^2 =  4.648E-11

      iter #   4 total cpu time :   717.4 secs   av.it.:  13.3
      thresh= 6.817E-07 alpha_mix =  0.300 |ddv_scf|^2 =  1.417E-12

      iter #   5 total cpu time :   730.2 secs   av.it.:  12.9
      thresh= 1.190E-07 alpha_mix =  0.300 |ddv_scf|^2 =  2.764E-13

      iter #   6 total cpu time :   740.8 secs   av.it.:  13.4
      thresh= 5.257E-08 alpha_mix =  0.300 |ddv_scf|^2 =  8.077E-15

     End of self-consistent calculation

     Convergence has been achieved 


     Representation #  11 mode #  16

     Self-consistent Calculation

      iter #   1 total cpu time :   753.9 secs   av.it.:   3.6
      thresh= 1.000E-02 alpha_mix =  0.300 |ddv_scf|^2 =  6.233E-10

      iter #   2 total cpu time :   760.2 secs   av.it.:  12.1
      thresh= 2.497E-06 alpha_mix =  0.300 |ddv_scf|^2 =  2.998E-10

      iter #   3 total cpu time :   767.1 secs   av.it.:  11.6
      thresh= 1.731E-06 alpha_mix =  0.300 |ddv_scf|^2 =  1.861E-12

      iter #   4 total cpu time :   774.0 secs   av.it.:  11.9
      thresh= 1.364E-07 alpha_mix =  0.300 |ddv_scf|^2 =  1.492E-13

      iter #   5 total cpu time :   780.6 secs   av.it.:  11.0
      thresh= 3.863E-08 alpha_mix =  0.300 |ddv_scf|^2 =  1.968E-15

     End of self-consistent calculation

     Convergence has been achieved 


     Representation #  12 mode #  17

     Self-consistent Calculation

      iter #   1 total cpu time :   792.4 secs   av.it.:   7.9
      thresh= 1.000E-02 alpha_mix =  0.300 |ddv_scf|^2 =  1.344E-04

      iter #   2 total cpu time :   799.9 secs   av.it.:  10.8
      thresh= 1.159E-03 alpha_mix =  0.300 |ddv_scf|^2 =  6.088E-05

      iter #   3 total cpu time :   806.5 secs   av.it.:  10.1
      thresh= 7.803E-04 alpha_mix =  0.300 |ddv_scf|^2 =  5.875E-08

      iter #   4 total cpu time :   814.5 secs   av.it.:  11.9
      thresh= 2.424E-05 alpha_mix =  0.300 |ddv_scf|^2 =  8.491E-09

      iter #   5 total cpu time :   821.9 secs   av.it.:  12.1
      thresh= 9.215E-06 alpha_mix =  0.300 |ddv_scf|^2 =  7.388E-10

      iter #   6 total cpu time :   828.7 secs   av.it.:  11.9
      thresh= 2.718E-06 alpha_mix =  0.300 |ddv_scf|^2 =  3.907E-11

      iter #   7 total cpu time :   835.4 secs   av.it.:  11.9
      thresh= 6.251E-07 alpha_mix =  0.300 |ddv_scf|^2 =  1.498E-12

      iter #   8 total cpu time :   843.8 secs   av.it.:  11.1
      thresh= 1.224E-07 alpha_mix =  0.300 |ddv_scf|^2 =  3.839E-13

      iter #   9 total cpu time :   850.9 secs   av.it.:  12.0
      thresh= 6.196E-08 alpha_mix =  0.300 |ddv_scf|^2 =  2.973E-14

      iter #  10 total cpu time :   858.1 secs   av.it.:  10.8
      thresh= 1.724E-08 alpha_mix =  0.300 |ddv_scf|^2 =  4.709E-15

     End of self-consistent calculation

     Convergence has been achieved 


     Representation #  13 mode #  18

     Self-consistent Calculation

      iter #   1 total cpu time :   870.7 secs   av.it.:   5.1
      thresh= 1.000E-02 alpha_mix =  0.300 |ddv_scf|^2 =  2.453E-07

      iter #   2 total cpu time :   876.9 secs   av.it.:  11.0
      thresh= 4.953E-05 alpha_mix =  0.300 |ddv_scf|^2 =  7.262E-08

      iter #   3 total cpu time :   883.8 secs   av.it.:  10.7
      thresh= 2.695E-05 alpha_mix =  0.300 |ddv_scf|^2 =  9.891E-09

      iter #   4 total cpu time :   890.6 secs   av.it.:  11.4
      thresh= 9.945E-06 alpha_mix =  0.300 |ddv_scf|^2 =  2.553E-10

      iter #   5 total cpu time :   898.1 secs   av.it.:  12.1
      thresh= 1.598E-06 alpha_mix =  0.300 |ddv_scf|^2 =  4.373E-12

      iter #   6 total cpu time :   906.0 secs   av.it.:  10.9
      thresh= 2.091E-07 alpha_mix =  0.300 |ddv_scf|^2 =  1.378E-12

      iter #   7 total cpu time :   913.4 secs   av.it.:  11.9
      thresh= 1.174E-07 alpha_mix =  0.300 |ddv_scf|^2 =  3.631E-14

      iter #   8 total cpu time :   921.9 secs   av.it.:  12.1
      thresh= 1.905E-08 alpha_mix =  0.300 |ddv_scf|^2 =  1.462E-15

     End of self-consistent calculation

     Convergence has been achieved 


     Representation #  14 mode #  19

     Self-consistent Calculation

      iter #   1 total cpu time :   933.0 secs   av.it.:   5.1
      thresh= 1.000E-02 alpha_mix =  0.300 |ddv_scf|^2 =  2.490E-06

      iter #   2 total cpu time :   939.2 secs   av.it.:  10.7
      thresh= 1.578E-04 alpha_mix =  0.300 |ddv_scf|^2 =  1.136E-06

      iter #   3 total cpu time :   945.9 secs   av.it.:  10.1
      thresh= 1.066E-04 alpha_mix =  0.300 |ddv_scf|^2 =  1.666E-09

      iter #   4 total cpu time :   952.5 secs   av.it.:  12.0
      thresh= 4.081E-06 alpha_mix =  0.300 |ddv_scf|^2 =  7.025E-11

      iter #   5 total cpu time :   959.2 secs   av.it.:  11.4
      thresh= 8.381E-07 alpha_mix =  0.300 |ddv_scf|^2 =  1.360E-11

      iter #   6 total cpu time :   967.0 secs   av.it.:  12.0
      thresh= 3.688E-07 alpha_mix =  0.300 |ddv_scf|^2 =  7.549E-13

      iter #   7 total cpu time :   974.6 secs   av.it.:  11.7
      thresh= 8.688E-08 alpha_mix =  0.300 |ddv_scf|^2 =  5.389E-14

      iter #   8 total cpu time :   981.5 secs   av.it.:  11.9
      thresh= 2.321E-08 alpha_mix =  0.300 |ddv_scf|^2 =  2.316E-15

     End of self-consistent calculation

     Convergence has been achieved 


     Representation #  15 mode #  20

     Self-consistent Calculation

      iter #   1 total cpu time :   993.8 secs   av.it.:   4.9
      thresh= 1.000E-02 alpha_mix =  0.300 |ddv_scf|^2 =  1.430E-06

      iter #   2 total cpu time :  1002.4 secs   av.it.:  10.8
      thresh= 1.196E-04 alpha_mix =  0.300 |ddv_scf|^2 =  6.486E-07

      iter #   3 total cpu time :  1009.7 secs   av.it.:  10.1
      thresh= 8.054E-05 alpha_mix =  0.300 |ddv_scf|^2 =  1.347E-09

      iter #   4 total cpu time :  1017.3 secs   av.it.:  11.9
      thresh= 3.670E-06 alpha_mix =  0.300 |ddv_scf|^2 =  9.684E-11

      iter #   5 total cpu time :  1026.0 secs   av.it.:  11.7
      thresh= 9.841E-07 alpha_mix =  0.300 |ddv_scf|^2 =  1.103E-11

      iter #   6 total cpu time :  1034.2 secs   av.it.:  11.8
      thresh= 3.321E-07 alpha_mix =  0.300 |ddv_scf|^2 =  1.327E-12

      iter #   7 total cpu time :  1041.8 secs   av.it.:  11.8
      thresh= 1.152E-07 alpha_mix =  0.300 |ddv_scf|^2 =  4.412E-14

      iter #   8 total cpu time :  1048.6 secs   av.it.:  11.1
      thresh= 2.101E-08 alpha_mix =  0.300 |ddv_scf|^2 =  1.410E-14

      iter #   9 total cpu time :  1055.3 secs   av.it.:  12.2
      thresh= 1.187E-08 alpha_mix =  0.300 |ddv_scf|^2 =  1.669E-15

     End of self-consistent calculation

     Convergence has been achieved 


     Representation #  16 mode #  21

     Self-consistent Calculation

      iter #   1 total cpu time :  1066.1 secs   av.it.:   4.9
      thresh= 1.000E-02 alpha_mix =  0.300 |ddv_scf|^2 =  1.004E-06

      iter #   2 total cpu time :  1077.6 secs   av.it.:  10.8
      thresh= 1.002E-04 alpha_mix =  0.300 |ddv_scf|^2 =  4.426E-07

      iter #   3 total cpu time :  1085.1 secs   av.it.:  10.1
      thresh= 6.653E-05 alpha_mix =  0.300 |ddv_scf|^2 =  1.587E-09

      iter #   4 total cpu time :  1092.4 secs   av.it.:  11.8
      thresh= 3.983E-06 alpha_mix =  0.300 |ddv_scf|^2 =  1.339E-10

      iter #   5 total cpu time :  1100.4 secs   av.it.:  11.9
      thresh= 1.157E-06 alpha_mix =  0.300 |ddv_scf|^2 =  1.046E-11

      iter #   6 total cpu time :  1107.4 secs   av.it.:  11.9
      thresh= 3.235E-07 alpha_mix =  0.300 |ddv_scf|^2 =  1.191E-12

      iter #   7 total cpu time :  1114.5 secs   av.it.:  11.9
      thresh= 1.091E-07 alpha_mix =  0.300 |ddv_scf|^2 =  2.951E-14

      iter #   8 total cpu time :  1122.3 secs   av.it.:  11.2
      thresh= 1.718E-08 alpha_mix =  0.300 |ddv_scf|^2 =  1.010E-14

      iter #   9 total cpu time :  1129.8 secs   av.it.:  12.2
      thresh= 1.005E-08 alpha_mix =  0.300 |ddv_scf|^2 =  1.249E-15

     End of self-consistent calculation

     Convergence has been achieved 


     Representation #  17 modes #  22  23

     Self-consistent Calculation

      iter #   1 total cpu time :  1146.0 secs   av.it.:   4.4
      thresh= 1.000E-02 alpha_mix =  0.300 |ddv_scf|^2 =  3.494E-09

      iter #   2 total cpu time :  1157.4 secs   av.it.:  12.5
      thresh= 5.911E-06 alpha_mix =  0.300 |ddv_scf|^2 =  7.518E-10

      iter #   3 total cpu time :  1168.8 secs   av.it.:  12.9
      thresh= 2.742E-06 alpha_mix =  0.300 |ddv_scf|^2 =  4.748E-11

      iter #   4 total cpu time :  1178.8 secs   av.it.:  13.4
      thresh= 6.891E-07 alpha_mix =  0.300 |ddv_scf|^2 =  8.493E-13

      iter #   5 total cpu time :  1189.1 secs   av.it.:  12.6
      thresh= 9.215E-08 alpha_mix =  0.300 |ddv_scf|^2 =  1.667E-13

      iter #   6 total cpu time :  1201.0 secs   av.it.:  13.4
      thresh= 4.083E-08 alpha_mix =  0.300 |ddv_scf|^2 =  8.003E-15

     End of self-consistent calculation

     Convergence has been achieved 


     Representation #  18 modes #  24  25

     Self-consistent Calculation

      iter #   1 total cpu time :  1219.7 secs   av.it.:   4.5
      thresh= 1.000E-02 alpha_mix =  0.300 |ddv_scf|^2 =  8.584E-09

      iter #   2 total cpu time :  1230.6 secs   av.it.:  12.2
      thresh= 9.265E-06 alpha_mix =  0.300 |ddv_scf|^2 =  1.549E-09

      iter #   3 total cpu time :  1242.1 secs   av.it.:  12.9
      thresh= 3.936E-06 alpha_mix =  0.300 |ddv_scf|^2 =  4.450E-11

      iter #   4 total cpu time :  1253.8 secs   av.it.:  13.3
      thresh= 6.671E-07 alpha_mix =  0.300 |ddv_scf|^2 =  2.044E-12

      iter #   5 total cpu time :  1265.2 secs   av.it.:  12.7
      thresh= 1.430E-07 alpha_mix =  0.300 |ddv_scf|^2 =  2.453E-13

      iter #   6 total cpu time :  1277.5 secs   av.it.:  13.0
      thresh= 4.953E-08 alpha_mix =  0.300 |ddv_scf|^2 =  1.024E-14

      iter #   7 total cpu time :  1288.3 secs   av.it.:  13.3
      thresh= 1.012E-08 alpha_mix =  0.300 |ddv_scf|^2 =  4.211E-17

     End of self-consistent calculation

     Convergence has been achieved 


     Representation #  19 modes #  26  27

     Self-consistent Calculation

      iter #   1 total cpu time :  1308.3 secs   av.it.:   4.2
      thresh= 1.000E-02 alpha_mix =  0.300 |ddv_scf|^2 =  1.820E-09

      iter #   2 total cpu time :  1320.1 secs   av.it.:  12.6
      thresh= 4.266E-06 alpha_mix =  0.300 |ddv_scf|^2 =  4.642E-10

      iter #   3 total cpu time :  1332.8 secs   av.it.:  13.0
      thresh= 2.154E-06 alpha_mix =  0.300 |ddv_scf|^2 =  3.364E-11

      iter #   4 total cpu time :  1345.0 secs   av.it.:  13.3
      thresh= 5.800E-07 alpha_mix =  0.300 |ddv_scf|^2 =  1.132E-12

      iter #   5 total cpu time :  1356.9 secs   av.it.:  13.3
      thresh= 1.064E-07 alpha_mix =  0.300 |ddv_scf|^2 =  3.937E-13

      iter #   6 total cpu time :  1369.1 secs   av.it.:  13.1
      thresh= 6.274E-08 alpha_mix =  0.300 |ddv_scf|^2 =  1.167E-14

      iter #   7 total cpu time :  1380.1 secs   av.it.:  13.2
      thresh= 1.080E-08 alpha_mix =  0.300 |ddv_scf|^2 =  1.432E-16

     End of self-consistent calculation

     Convergence has been achieved 


     Representation #  20 modes #  28  29

     Self-consistent Calculation

      iter #   1 total cpu time :  1403.6 secs   av.it.:   4.5
      thresh= 1.000E-02 alpha_mix =  0.300 |ddv_scf|^2 =  4.149E-09

      iter #   2 total cpu time :  1415.4 secs   av.it.:  12.4
      thresh= 6.441E-06 alpha_mix =  0.300 |ddv_scf|^2 =  9.039E-10

      iter #   3 total cpu time :  1425.7 secs   av.it.:  13.0
      thresh= 3.006E-06 alpha_mix =  0.300 |ddv_scf|^2 =  4.532E-11

      iter #   4 total cpu time :  1436.1 secs   av.it.:  13.3
      thresh= 6.732E-07 alpha_mix =  0.300 |ddv_scf|^2 =  1.852E-12

      iter #   5 total cpu time :  1447.0 secs   av.it.:  13.0
      thresh= 1.361E-07 alpha_mix =  0.300 |ddv_scf|^2 =  2.604E-13

      iter #   6 total cpu time :  1458.5 secs   av.it.:  13.2
      thresh= 5.103E-08 alpha_mix =  0.300 |ddv_scf|^2 =  1.646E-14

      iter #   7 total cpu time :  1469.4 secs   av.it.:  13.3
      thresh= 1.283E-08 alpha_mix =  0.300 |ddv_scf|^2 =  1.236E-16

     End of self-consistent calculation

     Convergence has been achieved 


     Representation #  21 modes #  30  31

     Self-consistent Calculation

      iter #   1 total cpu time :  1486.3 secs   av.it.:   4.9
      thresh= 1.000E-02 alpha_mix =  0.300 |ddv_scf|^2 =  2.077E-08

      iter #   2 total cpu time :  1497.4 secs   av.it.:  12.2
      thresh= 1.441E-05 alpha_mix =  0.300 |ddv_scf|^2 =  3.430E-09

      iter #   3 total cpu time :  1508.8 secs   av.it.:  12.9
      thresh= 5.857E-06 alpha_mix =  0.300 |ddv_scf|^2 =  5.665E-11

      iter #   4 total cpu time :  1519.8 secs   av.it.:  13.3
      thresh= 7.526E-07 alpha_mix =  0.300 |ddv_scf|^2 =  1.604E-12

      iter #   5 total cpu time :  1530.6 secs   av.it.:  12.5
      thresh= 1.267E-07 alpha_mix =  0.300 |ddv_scf|^2 =  3.247E-13

      iter #   6 total cpu time :  1540.8 secs   av.it.:  13.1
      thresh= 5.699E-08 alpha_mix =  0.300 |ddv_scf|^2 =  1.824E-14

      iter #   7 total cpu time :  1552.8 secs   av.it.:  13.3
      thresh= 1.351E-08 alpha_mix =  0.300 |ddv_scf|^2 =  8.708E-17

     End of self-consistent calculation

     Convergence has been achieved 


     Representation #  22 modes #  32  33

     Self-consistent Calculation

      iter #   1 total cpu time :  1571.6 secs   av.it.:   7.0
      thresh= 1.000E-02 alpha_mix =  0.300 |ddv_scf|^2 =  2.924E-07

      iter #   2 total cpu time :  1582.4 secs   av.it.:  12.3
      thresh= 5.408E-05 alpha_mix =  0.300 |ddv_scf|^2 =  5.664E-08

      iter #   3 total cpu time :  1594.5 secs   av.it.:  12.9
      thresh= 2.380E-05 alpha_mix =  0.300 |ddv_scf|^2 =  4.685E-09

      iter #   4 total cpu time :  1605.4 secs   av.it.:  13.3
      thresh= 6.845E-06 alpha_mix =  0.300 |ddv_scf|^2 =  2.986E-11

      iter #   5 total cpu time :  1616.1 secs   av.it.:  12.2
      thresh= 5.465E-07 alpha_mix =  0.300 |ddv_scf|^2 =  8.734E-12

      iter #   6 total cpu time :  1627.7 secs   av.it.:  13.2
      thresh= 2.955E-07 alpha_mix =  0.300 |ddv_scf|^2 =  2.002E-13

      iter #   7 total cpu time :  1639.6 secs   av.it.:  13.2
      thresh= 4.475E-08 alpha_mix =  0.300 |ddv_scf|^2 =  6.039E-15

     End of self-consistent calculation

     Convergence has been achieved 
 
     Number of q in the star =    4
     List of q in the star:
          1  -0.353553391  -0.353553391   0.353553391
          2  -0.353553391   0.353553391   0.353553391
          3  -0.353553391  -0.353553391  -0.353553391
          4  -0.353553391   0.353553391  -0.353553391

     Diagonalizing the dynamical matrix

     q = (   -0.353553391  -0.353553391   0.353553391 ) 

 **************************************************************************
     freq (    1) =       5.743849 [THz] =     191.594184 [cm-1]
     freq (    2) =       5.743849 [THz] =     191.594184 [cm-1]
     freq (    3) =       9.047996 [THz] =     301.808674 [cm-1]
     freq (    4) =      16.911122 [THz] =     564.094301 [cm-1]
     freq (    5) =      16.911122 [THz] =     564.094301 [cm-1]
     freq (    6) =      27.236386 [THz] =     908.508057 [cm-1]
     freq (    7) =      28.115695 [THz] =     937.838620 [cm-1]
     freq (    8) =      28.115695 [THz] =     937.838620 [cm-1]
     freq (    9) =      29.479208 [THz] =     983.320533 [cm-1]
     freq (   10) =      29.479208 [THz] =     983.320533 [cm-1]
     freq (   11) =      34.670142 [THz] =    1156.471445 [cm-1]
     freq (   12) =      36.897280 [THz] =    1230.760782 [cm-1]
     freq (   13) =      36.897280 [THz] =    1230.760782 [cm-1]
     freq (   14) =      37.746190 [THz] =    1259.077380 [cm-1]
     freq (   15) =      39.614192 [THz] =    1321.387199 [cm-1]
     freq (   16) =      40.361110 [THz] =    1346.301705 [cm-1]
     freq (   17) =      40.361110 [THz] =    1346.301705 [cm-1]
     freq (   18) =      41.331134 [THz] =    1378.658243 [cm-1]
     freq (   19) =      41.530361 [THz] =    1385.303739 [cm-1]
     freq (   20) =      41.530361 [THz] =    1385.303739 [cm-1]
     freq (   21) =      43.212895 [THz] =    1441.427013 [cm-1]
     freq (   22) =      43.212895 [THz] =    1441.427013 [cm-1]
     freq (   23) =      44.784360 [THz] =    1493.845461 [cm-1]
     freq (   24) =      46.494049 [THz] =    1550.874526 [cm-1]
     freq (   25) =      46.494049 [THz] =    1550.874526 [cm-1]
     freq (   26) =      46.740417 [THz] =    1559.092481 [cm-1]
     freq (   27) =      47.818656 [THz] =    1595.058671 [cm-1]
     freq (   28) =      52.385057 [THz] =    1747.377400 [cm-1]
     freq (   29) =      52.385057 [THz] =    1747.377400 [cm-1]
     freq (   30) =      52.624587 [THz] =    1755.367286 [cm-1]
     freq (   31) =      52.624587 [THz] =    1755.367286 [cm-1]
     freq (   32) =      59.036791 [THz] =    1969.255375 [cm-1]
     freq (   33) =      60.651488 [THz] =    2023.115872 [cm-1]
 **************************************************************************

     Mode symmetry, D_3d (-3m)  point group:

     freq (   1-   2) =        191.6  [cm-1]   --> E_u  L_3'          
     freq (   3-   3) =        301.8  [cm-1]   --> A_2u L_2'          
     freq (   4-   5) =        564.1  [cm-1]   --> E_u  L_3'          
     freq (   6-   6) =        908.5  [cm-1]   --> A_1g L_1           
     freq (   7-   8) =        937.8  [cm-1]   --> E_g  L_3           
     freq (   9-  10) =        983.3  [cm-1]   --> E_u  L_3'          
     freq (  11-  11) =       1156.5  [cm-1]   --> A_2u L_2'          
     freq (  12-  13) =       1230.8  [cm-1]   --> E_g  L_3           
     freq (  14-  14) =       1259.1  [cm-1]   --> A_2g L_2           
     freq (  15-  15) =       1321.4  [cm-1]   --> A_1u L_1'          
     freq (  16-  17) =       1346.3  [cm-1]   --> E_u  L_3'          
     freq (  18-  18) =       1378.7  [cm-1]   --> A_2u L_2'          
     freq (  19-  20) =       1385.3  [cm-1]   --> E_g  L_3           
     freq (  21-  22) =       1441.4  [cm-1]   --> E_u  L_3'          
     freq (  23-  23) =       1493.8  [cm-1]   --> A_1g L_1           
     freq (  24-  25) =       1550.9  [cm-1]   --> E_g  L_3           
     freq (  26-  26) =       1559.1  [cm-1]   --> A_2u L_2'          
     freq (  27-  27) =       1595.1  [cm-1]   --> A_1g L_1           
     freq (  28-  29) =       1747.4  [cm-1]   --> E_u  L_3'          
     freq (  30-  31) =       1755.4  [cm-1]   --> E_g  L_3           
     freq (  32-  32) =       1969.3  [cm-1]   --> A_1g L_1           
     freq (  33-  33) =       2023.1  [cm-1]   --> A_2u L_2'          
     Electron-phonon interaction  ...

     Gaussian Broadening:   0.005 Ry, ngauss=   0
     DOS =  5.706849 states/spin/Ry/Unit Cell at Ef= 20.445499 eV
     lambda(    1)=  0.4960   gamma=   89.19 GHz
     lambda(    2)=  0.5051   gamma=   90.82 GHz
     lambda(    3)=  0.0432   gamma=   19.28 GHz
     lambda(    4)=  1.4587   gamma= 2273.42 GHz
     lambda(    5)=  1.4546   gamma= 2267.09 GHz
     lambda(    6)=  0.0178   gamma=   71.93 GHz
     lambda(    7)=  0.0499   gamma=  214.97 GHz
     lambda(    8)=  0.0521   gamma=  224.50 GHz
     lambda(    9)=  0.0125   gamma=   59.20 GHz
     lambda(   10)=  0.0124   gamma=   58.62 GHz
     lambda(   11)=  0.0714   gamma=  467.49 GHz
     lambda(   12)=  0.0378   gamma=  280.32 GHz
     lambda(   13)=  0.0376   gamma=  278.96 GHz
     lambda(   14)=  0.1839   gamma= 1427.96 GHz
     lambda(   15)=  0.0230   gamma=  196.32 GHz
     lambda(   16)=  0.0945   gamma=  839.18 GHz
     lambda(   17)=  0.0961   gamma=  853.01 GHz
     lambda(   18)=  0.0637   gamma=  593.34 GHz
     lambda(   19)=  0.0109   gamma=  102.52 GHz
     lambda(   20)=  0.0102   gamma=   96.12 GHz
     lambda(   21)=  0.1992   gamma= 2027.49 GHz
     lambda(   22)=  0.1986   gamma= 2020.81 GHz
     lambda(   23)=  0.0791   gamma=  864.46 GHz
     lambda(   24)=  0.0451   gamma=  531.89 GHz
     lambda(   25)=  0.0436   gamma=  513.85 GHz
     lambda(   26)=  0.0121   gamma=  144.48 GHz
     lambda(   27)=  0.0375   gamma=  467.23 GHz
     lambda(   28)=  0.0293   gamma=  438.08 GHz
     lambda(   29)=  0.0290   gamma=  433.27 GHz
     lambda(   30)=  0.0136   gamma=  206.00 GHz
     lambda(   31)=  0.0147   gamma=  222.59 GHz
     lambda(   32)=  0.0049   gamma=   92.56 GHz
     lambda(   33)=  0.0070   gamma=  140.33 GHz
     Gaussian Broadening:   0.010 Ry, ngauss=   0
     DOS =  5.493178 states/spin/Ry/Unit Cell at Ef= 20.444376 eV
     lambda(    1)=  0.3521   gamma=   60.94 GHz
     lambda(    2)=  0.3554   gamma=   61.52 GHz
     lambda(    3)=  0.0270   gamma=   11.58 GHz
     lambda(    4)=  1.2265   gamma= 1840.02 GHz
     lambda(    5)=  1.2098   gamma= 1814.91 GHz
     lambda(    6)=  0.0223   gamma=   86.86 GHz
     lambda(    7)=  0.0519   gamma=  215.36 GHz
     lambda(    8)=  0.0535   gamma=  221.87 GHz
     lambda(    9)=  0.0093   gamma=   42.52 GHz
     lambda(   10)=  0.0086   gamma=   39.07 GHz
     lambda(   11)=  0.0503   gamma=  317.07 GHz
     lambda(   12)=  0.0366   gamma=  261.67 GHz
     lambda(   13)=  0.0362   gamma=  258.20 GHz
     lambda(   14)=  0.1328   gamma=  992.72 GHz
     lambda(   15)=  0.0126   gamma=  103.69 GHz
     lambda(   16)=  0.0591   gamma=  504.64 GHz
     lambda(   17)=  0.0597   gamma=  510.05 GHz
     lambda(   18)=  0.0608   gamma=  545.21 GHz
     lambda(   19)=  0.0125   gamma=  112.92 GHz
     lambda(   20)=  0.0122   gamma=  110.25 GHz
     lambda(   21)=  0.1256   gamma= 1230.39 GHz
     lambda(   22)=  0.1261   gamma= 1234.80 GHz
     lambda(   23)=  0.0476   gamma=  501.16 GHz
     lambda(   24)=  0.0460   gamma=  521.28 GHz
     lambda(   25)=  0.0462   gamma=  523.64 GHz
     lambda(   26)=  0.0164   gamma=  187.79 GHz
     lambda(   27)=  0.0296   gamma=  354.92 GHz
     lambda(   28)=  0.0203   gamma=  292.81 GHz
     lambda(   29)=  0.0202   gamma=  290.11 GHz
     lambda(   30)=  0.0118   gamma=  171.93 GHz
     lambda(   31)=  0.0121   gamma=  175.43 GHz
     lambda(   32)=  0.0041   gamma=   74.12 GHz
     lambda(   33)=  0.0070   gamma=  134.87 GHz
     Gaussian Broadening:   0.015 Ry, ngauss=   0
     DOS =  5.643591 states/spin/Ry/Unit Cell at Ef= 20.442941 eV
     lambda(    1)=  0.3249   gamma=   57.76 GHz
     lambda(    2)=  0.3245   gamma=   57.69 GHz
     lambda(    3)=  0.0266   gamma=   11.74 GHz
     lambda(    4)=  1.0709   gamma= 1650.56 GHz
     lambda(    5)=  1.0540   gamma= 1624.53 GHz
     lambda(    6)=  0.0253   gamma=  101.08 GHz
     lambda(    7)=  0.0639   gamma=  272.18 GHz
     lambda(    8)=  0.0641   gamma=  272.92 GHz
     lambda(    9)=  0.0088   gamma=   41.26 GHz
     lambda(   10)=  0.0084   gamma=   39.23 GHz
     lambda(   11)=  0.0486   gamma=  314.90 GHz
     lambda(   12)=  0.0400   gamma=  293.71 GHz
     lambda(   13)=  0.0398   gamma=  291.74 GHz
     lambda(   14)=  0.1181   gamma=  906.96 GHz
     lambda(   15)=  0.0106   gamma=   89.41 GHz
     lambda(   16)=  0.0514   gamma=  451.30 GHz
     lambda(   17)=  0.0518   gamma=  454.49 GHz
     lambda(   18)=  0.0603   gamma=  554.86 GHz
     lambda(   19)=  0.0160   gamma=  148.32 GHz
     lambda(   20)=  0.0161   gamma=  149.91 GHz
     lambda(   21)=  0.1087   gamma= 1093.45 GHz
     lambda(   22)=  0.1090   gamma= 1097.37 GHz
     lambda(   23)=  0.0433   gamma=  468.24 GHz
     lambda(   24)=  0.0501   gamma=  583.83 GHz
     lambda(   25)=  0.0507   gamma=  590.18 GHz
     lambda(   26)=  0.0164   gamma=  193.58 GHz
     lambda(   27)=  0.0286   gamma=  352.04 GHz
     lambda(   28)=  0.0174   gamma=  257.36 GHz
     lambda(   29)=  0.0173   gamma=  255.24 GHz
     lambda(   30)=  0.0118   gamma=  175.55 GHz
     lambda(   31)=  0.0118   gamma=  176.58 GHz
     lambda(   32)=  0.0042   gamma=   77.96 GHz
     lambda(   33)=  0.0076   gamma=  149.78 GHz
     Gaussian Broadening:   0.020 Ry, ngauss=   0
     DOS =  5.693100 states/spin/Ry/Unit Cell at Ef= 20.442131 eV
     lambda(    1)=  0.3173   gamma=   56.91 GHz
     lambda(    2)=  0.3143   gamma=   56.36 GHz
     lambda(    3)=  0.0275   gamma=   12.22 GHz
     lambda(    4)=  1.0099   gamma= 1570.23 GHz
     lambda(    5)=  1.0035   gamma= 1560.29 GHz
     lambda(    6)=  0.0268   gamma=  108.10 GHz
     lambda(    7)=  0.0714   gamma=  306.65 GHz
     lambda(    8)=  0.0707   gamma=  303.81 GHz
     lambda(    9)=  0.0088   gamma=   41.38 GHz
     lambda(   10)=  0.0085   gamma=   40.39 GHz
     lambda(   11)=  0.0488   gamma=  318.82 GHz
     lambda(   12)=  0.0410   gamma=  303.72 GHz
     lambda(   13)=  0.0409   gamma=  302.98 GHz
     lambda(   14)=  0.1147   gamma=  888.67 GHz
     lambda(   15)=  0.0102   gamma=   86.81 GHz
     lambda(   16)=  0.0479   gamma=  424.35 GHz
     lambda(   17)=  0.0482   gamma=  426.83 GHz
     lambda(   18)=  0.0588   gamma=  545.81 GHz
     lambda(   19)=  0.0179   gamma=  167.49 GHz
     lambda(   20)=  0.0182   gamma=  170.65 GHz
     lambda(   21)=  0.1022   gamma= 1038.01 GHz
     lambda(   22)=  0.1025   gamma= 1040.31 GHz
     lambda(   23)=  0.0429   gamma=  467.30 GHz
     lambda(   24)=  0.0511   gamma=  600.74 GHz
     lambda(   25)=  0.0514   gamma=  604.46 GHz
     lambda(   26)=  0.0172   gamma=  203.99 GHz
     lambda(   27)=  0.0290   gamma=  360.18 GHz
     lambda(   28)=  0.0172   gamma=  256.93 GHz
     lambda(   29)=  0.0170   gamma=  254.34 GHz
     lambda(   30)=  0.0115   gamma=  173.16 GHz
     lambda(   31)=  0.0116   gamma=  173.91 GHz
     lambda(   32)=  0.0043   gamma=   82.17 GHz
     lambda(   33)=  0.0081   gamma=  161.89 GHz
     Gaussian Broadening:   0.025 Ry, ngauss=   0
     DOS =  5.666404 states/spin/Ry/Unit Cell at Ef= 20.442478 eV
     lambda(    1)=  0.3103   gamma=   55.39 GHz
     lambda(    2)=  0.3056   gamma=   54.55 GHz
     lambda(    3)=  0.0275   gamma=   12.17 GHz
     lambda(    4)=  0.9720   gamma= 1504.22 GHz
     lambda(    5)=  0.9772   gamma= 1512.26 GHz
     lambda(    6)=  0.0285   gamma=  114.35 GHz
     lambda(    7)=  0.0742   gamma=  317.27 GHz
     lambda(    8)=  0.0732   gamma=  313.30 GHz
     lambda(    9)=  0.0087   gamma=   41.12 GHz
     lambda(   10)=  0.0086   gamma=   40.53 GHz
     lambda(   11)=  0.0483   gamma=  314.16 GHz
     lambda(   12)=  0.0409   gamma=  301.09 GHz
     lambda(   13)=  0.0408   gamma=  300.88 GHz
     lambda(   14)=  0.1113   gamma=  857.87 GHz
     lambda(   15)=  0.0099   gamma=   84.35 GHz
     lambda(   16)=  0.0455   gamma=  401.44 GHz
     lambda(   17)=  0.0458   gamma=  403.59 GHz
     lambda(   18)=  0.0588   gamma=  543.53 GHz
     lambda(   19)=  0.0188   gamma=  175.87 GHz
     lambda(   20)=  0.0192   gamma=  179.11 GHz
     lambda(   21)=  0.0989   gamma=  999.18 GHz
     lambda(   22)=  0.0990   gamma= 1000.38 GHz
     lambda(   23)=  0.0421   gamma=  456.41 GHz
     lambda(   24)=  0.0510   gamma=  596.09 GHz
     lambda(   25)=  0.0511   gamma=  597.68 GHz
     lambda(   26)=  0.0177   gamma=  209.41 GHz
     lambda(   27)=  0.0296   gamma=  366.41 GHz
     lambda(   28)=  0.0175   gamma=  259.94 GHz
     lambda(   29)=  0.0173   gamma=  256.79 GHz
     lambda(   30)=  0.0114   gamma=  171.03 GHz
     lambda(   31)=  0.0115   gamma=  171.88 GHz
     lambda(   32)=  0.0047   gamma=   87.76 GHz
     lambda(   33)=  0.0084   gamma=  166.96 GHz
     Gaussian Broadening:   0.030 Ry, ngauss=   0
     DOS =  5.611139 states/spin/Ry/Unit Cell at Ef= 20.443739 eV
     lambda(    1)=  0.3038   gamma=   53.70 GHz
     lambda(    2)=  0.2982   gamma=   52.71 GHz
     lambda(    3)=  0.0273   gamma=   11.97 GHz
     lambda(    4)=  0.9439   gamma= 1446.46 GHz
     lambda(    5)=  0.9582   gamma= 1468.29 GHz
     lambda(    6)=  0.0302   gamma=  120.22 GHz
     lambda(    7)=  0.0750   gamma=  317.53 GHz
     lambda(    8)=  0.0741   gamma=  313.69 GHz
     lambda(    9)=  0.0087   gamma=   40.68 GHz
     lambda(   10)=  0.0086   gamma=   40.24 GHz
     lambda(   11)=  0.0478   gamma=  307.57 GHz
     lambda(   12)=  0.0404   gamma=  294.49 GHz
     lambda(   13)=  0.0404   gamma=  294.44 GHz
     lambda(   14)=  0.1075   gamma=  820.92 GHz
     lambda(   15)=  0.0097   gamma=   81.42 GHz
     lambda(   16)=  0.0439   gamma=  383.45 GHz
     lambda(   17)=  0.0442   gamma=  385.38 GHz
     lambda(   18)=  0.0599   gamma=  548.55 GHz
     lambda(   19)=  0.0196   gamma=  180.98 GHz
     lambda(   20)=  0.0199   gamma=  183.78 GHz
     lambda(   21)=  0.0968   gamma=  968.10 GHz
     lambda(   22)=  0.0968   gamma=  968.70 GHz
     lambda(   23)=  0.0412   gamma=  442.32 GHz
     lambda(   24)=  0.0506   gamma=  586.29 GHz
     lambda(   25)=  0.0507   gamma=  586.82 GHz
     lambda(   26)=  0.0181   gamma=  212.40 GHz
     lambda(   27)=  0.0302   gamma=  369.71 GHz
     lambda(   28)=  0.0177   gamma=  260.66 GHz
     lambda(   29)=  0.0175   gamma=  257.25 GHz
     lambda(   30)=  0.0114   gamma=  169.42 GHz
     lambda(   31)=  0.0115   gamma=  170.41 GHz
     lambda(   32)=  0.0050   gamma=   93.87 GHz
     lambda(   33)=  0.0086   gamma=  168.97 GHz
     Gaussian Broadening:   0.035 Ry, ngauss=   0
     DOS =  5.552244 states/spin/Ry/Unit Cell at Ef= 20.445745 eV
     lambda(    1)=  0.2980   gamma=   52.13 GHz
     lambda(    2)=  0.2920   gamma=   51.08 GHz
     lambda(    3)=  0.0271   gamma=   11.78 GHz
     lambda(    4)=  0.9222   gamma= 1398.32 GHz
     lambda(    5)=  0.9421   gamma= 1428.58 GHz
     lambda(    6)=  0.0318   gamma=  124.98 GHz
     lambda(    7)=  0.0750   gamma=  314.37 GHz
     lambda(    8)=  0.0742   gamma=  311.10 GHz
     lambda(    9)=  0.0087   gamma=   40.23 GHz
     lambda(   10)=  0.0087   gamma=   39.87 GHz
     lambda(   11)=  0.0473   gamma=  301.51 GHz
     lambda(   12)=  0.0398   gamma=  286.93 GHz
     lambda(   13)=  0.0397   gamma=  286.89 GHz
     lambda(   14)=  0.1039   gamma=  785.11 GHz
     lambda(   15)=  0.0094   gamma=   78.50 GHz
     lambda(   16)=  0.0428   gamma=  369.48 GHz
     lambda(   17)=  0.0430   gamma=  371.22 GHz
     lambda(   18)=  0.0613   gamma=  554.99 GHz
     lambda(   19)=  0.0203   gamma=  185.19 GHz
     lambda(   20)=  0.0205   gamma=  187.50 GHz
     lambda(   21)=  0.0949   gamma=  940.05 GHz
     lambda(   22)=  0.0950   gamma=  940.37 GHz
     lambda(   23)=  0.0404   gamma=  429.11 GHz
     lambda(   24)=  0.0503   gamma=  576.26 GHz
     lambda(   25)=  0.0503   gamma=  576.34 GHz
     lambda(   26)=  0.0186   gamma=  214.95 GHz
     lambda(   27)=  0.0306   gamma=  370.88 GHz
     lambda(   28)=  0.0178   gamma=  259.35 GHz
     lambda(   29)=  0.0176   gamma=  256.00 GHz
     lambda(   30)=  0.0114   gamma=  167.85 GHz
     lambda(   31)=  0.0115   gamma=  168.93 GHz
     lambda(   32)=  0.0054   gamma=   99.02 GHz
     lambda(   33)=  0.0087   gamma=  169.98 GHz
     Gaussian Broadening:   0.040 Ry, ngauss=   0
     DOS =  5.498034 states/spin/Ry/Unit Cell at Ef= 20.448391 eV
     lambda(    1)=  0.2928   gamma=   50.72 GHz
     lambda(    2)=  0.2867   gamma=   49.67 GHz
     lambda(    3)=  0.0271   gamma=   11.64 GHz
     lambda(    4)=  0.9046   gamma= 1358.22 GHz
     lambda(    5)=  0.9274   gamma= 1392.43 GHz
     lambda(    6)=  0.0330   gamma=  128.66 GHz
     lambda(    7)=  0.0748   gamma=  310.49 GHz
     lambda(    8)=  0.0742   gamma=  307.84 GHz
     lambda(    9)=  0.0087   gamma=   39.86 GHz
     lambda(   10)=  0.0087   gamma=   39.57 GHz
     lambda(   11)=  0.0469   gamma=  296.20 GHz
     lambda(   12)=  0.0391   gamma=  279.26 GHz
     lambda(   13)=  0.0391   gamma=  279.19 GHz
     lambda(   14)=  0.1007   gamma=  753.21 GHz
     lambda(   15)=  0.0092   gamma=   75.90 GHz
     lambda(   16)=  0.0419   gamma=  358.21 GHz
     lambda(   17)=  0.0421   gamma=  359.76 GHz
     lambda(   18)=  0.0625   gamma=  560.41 GHz
     lambda(   19)=  0.0208   gamma=  188.62 GHz
     lambda(   20)=  0.0210   gamma=  190.53 GHz
     lambda(   21)=  0.0933   gamma=  914.27 GHz
     lambda(   22)=  0.0933   gamma=  914.53 GHz
     lambda(   23)=  0.0397   gamma=  417.81 GHz
     lambda(   24)=  0.0500   gamma=  567.19 GHz
     lambda(   25)=  0.0500   gamma=  567.06 GHz
     lambda(   26)=  0.0190   gamma=  217.45 GHz
     lambda(   27)=  0.0309   gamma=  371.06 GHz
     lambda(   28)=  0.0179   gamma=  257.24 GHz
     lambda(   29)=  0.0176   gamma=  254.15 GHz
     lambda(   30)=  0.0114   gamma=  166.43 GHz
     lambda(   31)=  0.0115   gamma=  167.53 GHz
     lambda(   32)=  0.0056   gamma=  103.27 GHz
     lambda(   33)=  0.0088   gamma=  170.85 GHz
     Gaussian Broadening:   0.045 Ry, ngauss=   0
     DOS =  5.450225 states/spin/Ry/Unit Cell at Ef= 20.451582 eV
     lambda(    1)=  0.2878   gamma=   49.42 GHz
     lambda(    2)=  0.2820   gamma=   48.42 GHz
     lambda(    3)=  0.0271   gamma=   11.53 GHz
     lambda(    4)=  0.8891   gamma= 1323.31 GHz
     lambda(    5)=  0.9127   gamma= 1358.45 GHz
     lambda(    6)=  0.0341   gamma=  131.55 GHz
     lambda(    7)=  0.0746   gamma=  306.81 GHz
     lambda(    8)=  0.0741   gamma=  304.66 GHz
     lambda(    9)=  0.0088   gamma=   39.60 GHz
     lambda(   10)=  0.0087   gamma=   39.37 GHz
     lambda(   11)=  0.0466   gamma=  291.36 GHz
     lambda(   12)=  0.0384   gamma=  271.75 GHz
     lambda(   13)=  0.0383   gamma=  271.64 GHz
     lambda(   14)=  0.0978   gamma=  725.52 GHz
     lambda(   15)=  0.0090   gamma=   73.70 GHz
     lambda(   16)=  0.0411   gamma=  348.68 GHz
     lambda(   17)=  0.0413   gamma=  350.05 GHz
     lambda(   18)=  0.0635   gamma=  564.35 GHz
     lambda(   19)=  0.0213   gamma=  191.02 GHz
     lambda(   20)=  0.0215   gamma=  192.64 GHz
     lambda(   21)=  0.0917   gamma=  890.91 GHz
     lambda(   22)=  0.0917   gamma=  891.27 GHz
     lambda(   23)=  0.0391   gamma=  408.25 GHz
     lambda(   24)=  0.0497   gamma=  559.15 GHz
     lambda(   25)=  0.0497   gamma=  558.88 GHz
     lambda(   26)=  0.0193   gamma=  219.80 GHz
     lambda(   27)=  0.0312   gamma=  371.13 GHz
     lambda(   28)=  0.0179   gamma=  255.13 GHz
     lambda(   29)=  0.0177   gamma=  252.40 GHz
     lambda(   30)=  0.0115   gamma=  165.26 GHz
     lambda(   31)=  0.0115   gamma=  166.36 GHz
     lambda(   32)=  0.0059   gamma=  107.13 GHz
     lambda(   33)=  0.0090   gamma=  171.92 GHz
     Gaussian Broadening:   0.050 Ry, ngauss=   0
     DOS =  5.408705 states/spin/Ry/Unit Cell at Ef= 20.455233 eV
     lambda(    1)=  0.2829   gamma=   48.21 GHz
     lambda(    2)=  0.2774   gamma=   47.26 GHz
     lambda(    3)=  0.0271   gamma=   11.44 GHz
     lambda(    4)=  0.8744   gamma= 1291.55 GHz
     lambda(    5)=  0.8977   gamma= 1325.94 GHz
     lambda(    6)=  0.0349   gamma=  133.85 GHz
     lambda(    7)=  0.0744   gamma=  303.61 GHz
     lambda(    8)=  0.0739   gamma=  301.86 GHz
     lambda(    9)=  0.0088   gamma=   39.40 GHz
     lambda(   10)=  0.0087   gamma=   39.22 GHz
     lambda(   11)=  0.0462   gamma=  286.81 GHz
     lambda(   12)=  0.0376   gamma=  264.55 GHz
     lambda(   13)=  0.0376   gamma=  264.43 GHz
     lambda(   14)=  0.0953   gamma=  701.46 GHz
     lambda(   15)=  0.0089   gamma=   71.97 GHz
     lambda(   16)=  0.0404   gamma=  340.31 GHz
     lambda(   17)=  0.0406   gamma=  341.53 GHz
     lambda(   18)=  0.0643   gamma=  566.91 GHz
     lambda(   19)=  0.0216   gamma=  192.32 GHz
     lambda(   20)=  0.0217   gamma=  193.73 GHz
     lambda(   21)=  0.0902   gamma=  869.95 GHz
     lambda(   22)=  0.0903   gamma=  870.50 GHz
     lambda(   23)=  0.0386   gamma=  399.93 GHz
     lambda(   24)=  0.0494   gamma=  551.94 GHz
     lambda(   25)=  0.0494   gamma=  551.53 GHz
     lambda(   26)=  0.0197   gamma=  221.92 GHz
     lambda(   27)=  0.0315   gamma=  371.49 GHz
     lambda(   28)=  0.0179   gamma=  253.39 GHz
     lambda(   29)=  0.0177   gamma=  251.05 GHz
     lambda(   30)=  0.0115   gamma=  164.32 GHz
     lambda(   31)=  0.0116   gamma=  165.41 GHz
     lambda(   32)=  0.0062   gamma=  110.87 GHz
     lambda(   33)=  0.0091   gamma=  173.28 GHz
 
 
     Number of q in the star =    4
     List of q in the star:
          1  -0.353553391  -0.353553391   0.353553391
          2  -0.353553391   0.353553391   0.353553391
          3  -0.353553391  -0.353553391  -0.353553391
          4  -0.353553391   0.353553391  -0.353553391
 
     init_run     :      0.44s CPU      0.77s WALL (       1 calls)
     electrons    :      7.18s CPU     10.79s WALL (       1 calls)

     Called by init_run:
     wfcinit      :      0.00s CPU      0.03s WALL (       1 calls)
     potinit      :      0.22s CPU      0.48s WALL (       1 calls)
     hinit0       :      0.10s CPU      0.11s WALL (       1 calls)

     Called by electrons:
     c_bands      :      7.14s CPU     10.74s WALL (       1 calls)
     v_of_rho     :      0.02s CPU      0.04s WALL (       2 calls)
     newd         :      0.05s CPU      0.08s WALL (       2 calls)
     PAW_pot      :      0.41s CPU      0.50s WALL (       2 calls)

     Called by c_bands:
     init_us_2    :      1.04s CPU      1.20s WALL (   11088 calls)
     cegterg      :      4.14s CPU      5.86s WALL (     153 calls)

     Called by *egterg:
     cdiaghg      :      1.26s CPU      1.37s WALL (    2424 calls)
     h_psi        :    243.94s CPU    306.28s WALL (  190672 calls)
     s_psi        :      8.02s CPU      8.72s WALL (  389855 calls)
     g_psi        :      0.01s CPU      0.01s WALL (    2328 calls)

     Called by h_psi:
     h_psi:calbec :      5.79s CPU      6.29s WALL (  190672 calls)
     vloc_psi     :    232.48s CPU    293.84s WALL (  190672 calls)
     add_vuspsi   :      4.15s CPU      4.52s WALL (  190672 calls)

     General routines
     calbec       :     27.24s CPU     28.59s WALL (  409535 calls)
     fft          :      1.67s CPU      2.15s WALL (    5187 calls)
     ffts         :     23.90s CPU     37.56s WALL (    2840 calls)
     fftw         :    361.96s CPU    503.82s WALL ( 3408252 calls)
     interpolate  :      0.78s CPU      1.17s WALL (     497 calls)
     davcio       :      4.90s CPU    285.91s WALL (   57482 calls)
 
     Parallel routines
 
     PHONON       :  17m 0.18s CPU  27m55.46s WALL

     INITIALIZATION: 
     phq_setup    :      0.02s CPU      0.51s WALL (       1 calls)
     phq_init     :      9.62s CPU     11.64s WALL (       1 calls)
 
     phq_init     :      9.62s CPU     11.64s WALL (       1 calls)
     set_drhoc    :      0.00s CPU      0.00s WALL (       3 calls)
     init_vloc    :      0.00s CPU      0.03s WALL (       2 calls)
     init_us_1    :      0.15s CPU      0.37s WALL (       2 calls)
     init_us_2    :      1.04s CPU      1.20s WALL (   11088 calls)
     newd         :      0.05s CPU      0.08s WALL (       2 calls)
     dvanqq       :      1.64s CPU      1.66s WALL (       1 calls)
     drho         :      5.89s CPU      7.53s WALL (       1 calls)
     drhous       :      1.88s CPU      2.35s WALL (       1 calls)
     nldyntot     :      0.18s CPU      0.18s WALL (       1 calls)
 
     DYNAMICAL MATRIX:
     dynmat0      :      1.02s CPU      1.12s WALL (       1 calls)
     dynmat_us    :      0.97s CPU      1.05s WALL (       1 calls)
     addusdynmat  :      0.00s CPU      0.00s WALL (       1 calls)
     d2ionq       :      0.04s CPU      0.04s WALL (       1 calls)
     dynmatcc     :      0.01s CPU      0.01s WALL (       1 calls)
     phqscf       :    974.97s CPU   1612.21s WALL (       1 calls)
     dynmatrix    :      0.23s CPU      0.26s WALL (       1 calls)
 
     phqscf       :    974.97s CPU   1612.21s WALL (       1 calls)
     solve_linter :    958.90s CPU   1575.51s WALL (      22 calls)
     sth_kernel   :    619.36s CPU    935.64s WALL (     159 calls)
     h_prec       :    132.45s CPU    134.80s WALL (    7632 calls)
     apply_dpot_b :     83.48s CPU    128.04s WALL (   11088 calls)
     ortho        :     16.68s CPU     17.14s WALL (   11088 calls)
     cgsolve      :    266.58s CPU    330.89s WALL (   11088 calls)
     incdrhoscf   :     78.86s CPU    117.79s WALL (   11088 calls)
                                        0.00s GPU  (   11088 calls)
     addusddens   :     18.13s CPU     24.02s WALL (     181 calls)
     vpsifft      :     18.61s CPU     29.28s WALL (    1584 calls)
     dv_of_drho   :      2.05s CPU      2.35s WALL (     231 calls)
     mix_pot      :     26.68s CPU    107.01s WALL (     159 calls)
     drhodv       :     16.03s CPU     21.83s WALL (      22 calls)
     psymdvscf    :     31.67s CPU     32.25s WALL (     159 calls)
     newdq        :     20.48s CPU     20.65s WALL (     159 calls)
     adddvscf     :      1.43s CPU      1.55s WALL (   11088 calls)
     com_dvloc    :     23.45s CPU     36.79s WALL (    2343 calls)
                                        0.00s GPU  (    2343 calls)
     addcore      :      0.43s CPU      0.50s WALL (    1353 calls)
                                        0.00s GPU  (    1353 calls)
     drhodvus     :     12.23s CPU     33.04s WALL (      22 calls)
 
     dvqpsi_us    :     30.46s CPU     44.13s WALL (    1584 calls)
                                        0.00s GPU  (    1584 calls)
     dvqpsi_us_on :      4.78s CPU      4.85s WALL (    1584 calls)
 
     add_vuspsi   :      4.15s CPU      4.52s WALL (  190672 calls)
     addusdbec    :      0.74s CPU      0.79s WALL (   12672 calls)
 
     drhodvus     :     12.23s CPU     33.04s WALL (      22 calls)
 
      Electron-phonon coupling
     elphel       :     23.26s CPU     47.21s WALL (      22 calls)
     elphsum      :     26.74s CPU     27.09s WALL (       1 calls)
 
      General routines
     calbec       :     27.24s CPU     28.59s WALL (  409535 calls)
     fft          :      1.67s CPU      2.15s WALL (    5187 calls)
     ffts         :     23.90s CPU     37.56s WALL (    2840 calls)
     fftw         :    361.96s CPU    503.82s WALL ( 3408252 calls)
     davcio       :      4.90s CPU    285.91s WALL (   57482 calls)
     write_rec    :      0.32s CPU    123.72s WALL (     181 calls)
 
      Additional routines
     ch_psi       :    262.73s CPU    326.67s WALL (  188095 calls)
     last         :     15.35s CPU     16.68s WALL (  188095 calls)
     Hesh         :      0.52s CPU      0.58s WALL (  188095 calls)
     ch_psi_all_k :     13.95s CPU     15.15s WALL (  188095 calls)
                                        0.00s GPU  (  188095 calls)
     ch_psi_calbe :      4.62s CPU      4.99s WALL (  188095 calls)
                                        0.00s GPU  (  188095 calls)
     h_psi_bgrp   :    244.33s CPU    306.69s WALL (  190672 calls)
     h_psi        :    243.94s CPU    306.28s WALL (  190672 calls)
     h_psi:pot    :    243.27s CPU    305.53s WALL (  190672 calls)
     h_psi:calbec :      5.79s CPU      6.29s WALL (  190672 calls)
     s_psi_bgrp   :      9.28s CPU     10.07s WALL (  389855 calls)
     s_psi        :      8.02s CPU      8.72s WALL (  389855 calls)
 
 
     PHONON       :  17m 0.18s CPU  27m55.46s WALL

 
   This run was terminated on:  13:59:37  22Oct2025            

=------------------------------------------------------------------------------=
   JOB DONE.
=------------------------------------------------------------------------------=
