
     Program PHONON v.7.4.1 starts on 22Oct2025 at 13:51:46 

     This program is part of the open-source Quantum ESPRESSO suite
     for quantum simulation of materials; please cite
         "P. Giannozzi et al., J. Phys.:Condens. Matter 21 395502 (2009);
         "P. Giannozzi et al., J. Phys.:Condens. Matter 29 465901 (2017);
         "P. Giannozzi et al., J. Chem. Phys. 152 154105 (2020);
          URL http://www.quantum-espresso.org", 
     in publications or presentations arising from this work. More details at
     http://www.quantum-espresso.org/quote

     Parallel version (MPI), running on    48 processors

     MPI processes distributed on     1 nodes
     180971 MiB available memory on the printing compute node when the environment starts
 
     Waiting for input...
     Reading input from standard input

     Reading xml data from directory:

     ./tmp/La1H10.save/
 
     K-points division:     npool     =       4
     R & G space division:  proc/nbgrp/npool/nimage =      12
     Subspace diagonalization in iterative solution of the eigenvalue problem:
     a serial algorithm will be used

     file La.pbe-spfn-kjpaw_psl.1.0.0.UPF: wavefunction(s)  5S 5D 4F renormalized
     file H.pbe-kjpaw_psl.1.0.0.UPF: wavefunction(s)  1S renormalized

     IMPORTANT: XC functional enforced from input :
     Exchange-correlation= PBE
                           (   1   4   3   4   0   0   0)
     Any further DFT definition will be discarded
     Please, verify this is what you really want

 
     Parallelization info
     --------------------
     sticks:   dense  smooth     PW     G-vecs:    dense   smooth      PW
     Min         231      77     23                 8029     1540     259
     Max         232      78     24                 8031     1543     261
     Sum        2773     925    283                96353    18499    3119
 
     Using Slab Decomposition
 
     Reading collected, re-writing distributed wavefunctions in ./tmp/


     Dynamical matrices for ( 6, 6, 6)  uniform grid of q-points
     (  16 q-points):
       N         xq(1)         xq(2)         xq(3) 
       1   0.000000000   0.000000000   0.000000000
       2   0.117851130   0.117851130  -0.117851130
       3   0.235702260   0.235702260  -0.235702260
       4  -0.353553391  -0.353553391   0.353553391
       5   0.235702260   0.000000000   0.000000000
       6   0.353553391   0.117851130  -0.117851130
       7  -0.235702260  -0.471404521   0.471404521
       8  -0.117851130  -0.353553391   0.353553391
       9   0.000000000  -0.235702260   0.235702260
      10   0.471404521   0.000000000   0.000000000
      11  -0.117851130  -0.589255651   0.589255651
      12  -0.000000000  -0.471404521   0.471404521
      13  -0.707106781   0.000000000   0.000000000
      14  -0.235702260  -0.471404521   0.707106781
      15  -0.117851130  -0.353553391   0.589255651
      16  -0.707106781   0.235702260   0.000000000

     Number and degeneracy of irreps per q-point
       N         xq(1)         xq(2)         xq(3)   N irreps
       1   0.000000000   0.000000000   0.000000000      13
        1   2   3   3   3   3   1   2   3   3   3   3   3
       2   0.117851130   0.117851130  -0.117851130      22
        1   1   1   1   1   1   1   1   1   1   1   2   2   2   2   2   2   2
   2   2   2   2
       3   0.235702260   0.235702260  -0.235702260      22
        1   1   1   1   1   1   1   1   1   1   1   2   2   2   2   2   2   2
   2   2   2   2
       4  -0.353553391  -0.353553391   0.353553391      22
        1   1   1   1   1   2   2   2   2   2   1   1   1   1   1   1   2   2
   2   2   2   2
       5   0.235702260   0.000000000   0.000000000      24
        1   1   1   1   1   1   1   1   1   1   1   1   1   1   1   2   2   2
   2   2   2   2   2   2
       6   0.353553391   0.117851130  -0.117851130      33
     No degeneracy
       7  -0.235702260  -0.471404521   0.471404521      33
     No degeneracy
       8  -0.117851130  -0.353553391   0.353553391      33
     No degeneracy
       9   0.000000000  -0.235702260   0.235702260      33
     No degeneracy
      10   0.471404521   0.000000000   0.000000000      24
        1   1   1   1   1   1   1   1   1   1   1   1   1   1   1   2   2   2
   2   2   2   2   2   2
      11  -0.117851130  -0.589255651   0.589255651      33
     No degeneracy
      12  -0.000000000  -0.471404521   0.471404521      33
     No degeneracy
      13  -0.707106781   0.000000000   0.000000000      24
        1   1   1   1   1   1   1   2   2   2   2   1   1   1   1   1   1   1
   1   2   2   2   2   2
      14  -0.235702260  -0.471404521   0.707106781      33
     No degeneracy
      15  -0.117851130  -0.353553391   0.589255651      33
     No degeneracy
Eigenvectors exchange needed    7   16
      16  -0.707106781   0.235702260   0.000000000      32
        1   1   1   1   1   1   2   1   1   1   1   1   1   1   1   1   1   1
   1   1   1   1   1   1   1   1   1   1   1   1   1   1

     Saving dvscf to file. Distribute only q points, not irreducible representations.

     Calculation of q =    0.2357023   0.0000000   0.0000000
 
     Parallelization info
     --------------------
     sticks:   dense  smooth     PW     G-vecs:    dense   smooth      PW
     Min         231      77     24                 8029     1540     273
     Max         232      78     25                 8031     1543     275
     Sum        2773     925    295                96353    18499    3287
 
     Using Slab Decomposition
 

     Title: 
     Electron-phonon coefficients for La1H10                                    


     bravais-lattice index     =            0
     lattice parameter (alat)  =       6.4716  a.u.
     unit-cell volume          =     191.6541 (a.u.)^3
     number of atoms/cell      =           11
     number of atomic types    =            2
     number of electrons       =        21.00
     number of Kohn-Sham states=           15
     kinetic-energy cutoff     =      80.0000  Ry
     charge density cutoff     =     960.0000  Ry
     Exchange-correlation= PBE
                           (   1   4   3   4   0   0   0)

     celldm(1)=   6.471590  celldm(2)=   0.000000  celldm(3)=   0.000000
     celldm(4)=   0.000000  celldm(5)=   0.000000  celldm(6)=   0.000000

     crystal axes: (cart. coord. in units of alat)
               a(1) = (   0.000000   0.707107   0.707107 )  
               a(2) = (   0.707107   0.000000   0.707107 )  
               a(3) = (   0.707107   0.707107   0.000000 )  

     reciprocal axes: (cart. coord. in units 2 pi/alat)
               b(1) = ( -0.707107  0.707107  0.707107 )  
               b(2) = (  0.707107 -0.707107  0.707107 )  
               b(3) = (  0.707107  0.707107 -0.707107 )  


     PseudoPot. # 1 for La read from file:
     /work/home/mayuan/workplace/1.typical_hydride/003.MH10/1.LaH10/250/Tc-666-paw/pp/La.pbe-spfn-kjpaw_psl.1.0.0.UPF
     MD5 check sum: ccc10218a00d76b68822f6b8f5772390
     Pseudo is Projector augmented-wave + core cor, Zval = 11.0
     Generated using 'atomic' code by A. Dal Corso  v.7.1
     Shape of augmentation charge: PSQ
     Using radial grid of 1253 points,  8 beta functions with: 
                l(1) =   0
                l(2) =   0
                l(3) =   1
                l(4) =   1
                l(5) =   2
                l(6) =   2
                l(7) =   3
                l(8) =   3
     Q(r) pseudized with 0 coefficients 


     PseudoPot. # 2 for H  read from file:
     /work/home/mayuan/workplace/1.typical_hydride/003.MH10/1.LaH10/250/Tc-666-paw/pp/H.pbe-kjpaw_psl.1.0.0.UPF
     MD5 check sum: 3bb27c602ede137025941d095c9090b7
     Pseudo is Projector augmented-wave, Zval =  1.0
     Generated using 'atomic' code by A. Dal Corso  v.7.1
     Shape of augmentation charge: PSQ
     Using radial grid of  929 points,  2 beta functions with: 
                l(1) =   0
                l(2) =   0
     Q(r) pseudized with 0 coefficients 


     atomic species   valence    mass     pseudopotential
     La               11.00   138.90547     La( 1.00)
     H                 1.00     1.00794     H ( 1.00)

     48 Sym. Ops., with inversion, found



   Cartesian axes

     site n.     atom                  positions (alat units)
         1        La     tau(   1) = (   0.0000000   0.0000000   0.0000000  )
         2        H      tau(   2) = (   0.3535534   0.3535534   0.3535534  )
         3        H      tau(   3) = (   1.0606602   1.0606602   1.0606602  )
         4        H      tau(   4) = (   0.8776866   0.8776866   0.8776866  )
         5        H      tau(   5) = (   0.5365270   0.5365270   0.5365270  )
         6        H      tau(   6) = (   0.5365270   0.5365270   0.8776866  )
         7        H      tau(   7) = (   0.8776866   0.8776866   0.5365270  )
         8        H      tau(   8) = (   0.5365270   0.8776866   0.5365270  )
         9        H      tau(   9) = (   0.8776866   0.5365270   0.8776866  )
        10        H      tau(  10) = (   0.8776866   0.5365270   0.5365270  )
        11        H      tau(  11) = (   0.5365270   0.8776866   0.8776866  )

     number of k points=   588  Gaussian smearing, width (Ry)=  0.0200

     Number of k-points >= 100: set verbosity='high' to print them.

     Dense  grid:    96353 G-vectors     FFT dimensions: (  64,  64,  64)

     Smooth grid:    18499 G-vectors     FFT dimensions: (  40,  40,  40)

     Estimated max dynamical RAM per process >      32.57 MB

     Estimated total dynamical RAM >       1.53 GB

     The potential is recalculated from file :
     ./tmp/_ph0/La1H10.q_5/La1H10.save/charge-density

     Starting wfcs are   30 atomic wfcs
     Checking if some PAW data can be deallocated... 

     Band Structure Calculation
     Davidson diagonalization with overlap

     ethr =  4.76E-11,  avg # of iterations = 28.9

     total cpu time spent up to now is       15.5 secs

     End of band structure calculation

     Number of k-points >= 100: set verbosity='high' to print the bands.

     the Fermi energy is    20.4236 ev

     Writing config to output data dir ./tmp/_ph0/La1H10.q_5/La1H10.save/ :
     XML data file

     Electron-phonon coefficients for La1H10                                    

     bravais-lattice index     =            0
     lattice parameter (alat)  =       6.4716  a.u.
     unit-cell volume          =     191.6541 (a.u.)^3
     number of atoms/cell      =           11
     number of atomic types    =            2
     kinetic-energy cut-off    =      80.0000  Ry
     charge density cut-off    =     960.0000  Ry
     convergence threshold     =      1.0E-14
     beta                      =       0.3000
     number of iterations used =            4
     Exchange-correlation= PBE
                           (   1   4   3   4   0   0   0)


     celldm(1)=    6.47159  celldm(2)=    0.00000  celldm(3)=    0.00000
     celldm(4)=    0.00000  celldm(5)=    0.00000  celldm(6)=    0.00000

     crystal axes: (cart. coord. in units of alat)
               a(1) = (  0.0000  0.7071  0.7071 )  
               a(2) = (  0.7071  0.0000  0.7071 )  
               a(3) = (  0.7071  0.7071  0.0000 )  

     reciprocal axes: (cart. coord. in units 2 pi/alat)
               b(1) = ( -0.7071  0.7071  0.7071 )  
               b(2) = (  0.7071 -0.7071  0.7071 )  
               b(3) = (  0.7071  0.7071 -0.7071 )  


     Atoms inside the unit cell: 

     Cartesian axes

     site n.  atom      mass           positions (alat units)
        1  La    138.9055   tau(    1) = (    0.00000    0.00000    0.00000  )
        2  H       1.0079   tau(    2) = (    0.35355    0.35355    0.35355  )
        3  H       1.0079   tau(    3) = (    1.06066    1.06066    1.06066  )
        4  H       1.0079   tau(    4) = (    0.87769    0.87769    0.87769  )
        5  H       1.0079   tau(    5) = (    0.53653    0.53653    0.53653  )
        6  H       1.0079   tau(    6) = (    0.53653    0.53653    0.87769  )
        7  H       1.0079   tau(    7) = (    0.87769    0.87769    0.53653  )
        8  H       1.0079   tau(    8) = (    0.53653    0.87769    0.53653  )
        9  H       1.0079   tau(    9) = (    0.87769    0.53653    0.87769  )
       10  H       1.0079   tau(   10) = (    0.87769    0.53653    0.53653  )
       11  H       1.0079   tau(   11) = (    0.53653    0.87769    0.87769  )

     Computing dynamical matrix for 
                    q = (   0.2357023   0.0000000   0.0000000 )
 
      8 Sym.Ops. (no q -> -q+G )


     G cutoff = 1018.4355  (   8029 G-vectors)     FFT grid: ( 64, 64, 64)
     G cutoff =  339.4785  (   1542 G-vectors)  smooth grid: ( 40, 40, 40)

     number of k points=   588  Gaussian smearing, width (Ry)=  0.0200

     PseudoPot. # 1 for La read from file:
     /work/home/mayuan/workplace/1.typical_hydride/003.MH10/1.LaH10/250/Tc-666-paw/pp/La.pbe-spfn-kjpaw_psl.1.0.0.UPF
     MD5 check sum: ccc10218a00d76b68822f6b8f5772390
     Pseudo is Projector augmented-wave + core cor, Zval = 11.0
     Generated using 'atomic' code by A. Dal Corso  v.7.1
     Shape of augmentation charge: PSQ
     Using radial grid of 1253 points,  8 beta functions with: 
                l(1) =   0
                l(2) =   0
                l(3) =   1
                l(4) =   1
                l(5) =   2
                l(6) =   2
                l(7) =   3
                l(8) =   3
     Q(r) pseudized with 0 coefficients 


     PseudoPot. # 2 for H  read from file:
     /work/home/mayuan/workplace/1.typical_hydride/003.MH10/1.LaH10/250/Tc-666-paw/pp/H.pbe-kjpaw_psl.1.0.0.UPF
     MD5 check sum: 3bb27c602ede137025941d095c9090b7
     Pseudo is Projector augmented-wave, Zval =  1.0
     Generated using 'atomic' code by A. Dal Corso  v.7.1
     Shape of augmentation charge: PSQ
     Using radial grid of  929 points,  2 beta functions with: 
                l(1) =   0
                l(2) =   0
     Q(r) pseudized with 0 coefficients 


     Mode symmetry, C_4v (4mm)  point group:


     Atomic displacements:
     There are   24 irreducible representations

     Representation     1      1 modes -  To be done

     Representation     2      1 modes -  To be done

     Representation     3      1 modes -  To be done

     Representation     4      1 modes -  To be done

     Representation     5      1 modes -  To be done

     Representation     6      1 modes -  To be done

     Representation     7      1 modes -  To be done

     Representation     8      1 modes -  To be done

     Representation     9      1 modes -  To be done

     Representation    10      1 modes -  To be done

     Representation    11      1 modes -  To be done

     Representation    12      1 modes -  To be done

     Representation    13      1 modes -  To be done

     Representation    14      1 modes -  To be done

     Representation    15      1 modes -  To be done

     Representation    16      2 modes -  To be done

     Representation    17      2 modes -  To be done

     Representation    18      2 modes -  To be done

     Representation    19      2 modes -  To be done

     Representation    20      2 modes -  To be done

     Representation    21      2 modes -  To be done

     Representation    22      2 modes -  To be done

     Representation    23      2 modes -  To be done

     Representation    24      2 modes -  To be done


     Message from routine init_vloc:
     Interpolation table for Vloc re-allocated

     Alpha used in Ewald sum =   2.8000
     PHONON       :     25.24s CPU     39.56s WALL



     Representation #   1 mode #   1

     Self-consistent Calculation

      iter #   1 total cpu time :    47.4 secs   av.it.:   5.2
      thresh= 1.000E-02 alpha_mix =  0.300 |ddv_scf|^2 =  3.256E-04

      iter #   2 total cpu time :    56.7 secs   av.it.:   9.6
      thresh= 1.804E-03 alpha_mix =  0.300 |ddv_scf|^2 =  1.686E-02

      iter #   3 total cpu time :    65.3 secs   av.it.:   7.2
      thresh= 1.000E-02 alpha_mix =  0.300 |ddv_scf|^2 =  1.957E-08

      iter #   4 total cpu time :    76.6 secs   av.it.:  10.8
      thresh= 1.399E-05 alpha_mix =  0.300 |ddv_scf|^2 =  1.726E-09

      iter #   5 total cpu time :    86.5 secs   av.it.:  11.5
      thresh= 4.154E-06 alpha_mix =  0.300 |ddv_scf|^2 =  7.381E-11

      iter #   6 total cpu time :    95.7 secs   av.it.:  12.1
      thresh= 8.591E-07 alpha_mix =  0.300 |ddv_scf|^2 =  1.311E-11

      iter #   7 total cpu time :   108.0 secs   av.it.:  10.7
      thresh= 3.621E-07 alpha_mix =  0.300 |ddv_scf|^2 =  1.136E-11

      iter #   8 total cpu time :   118.4 secs   av.it.:  10.1
      thresh= 3.370E-07 alpha_mix =  0.300 |ddv_scf|^2 =  2.878E-12

      iter #   9 total cpu time :   129.5 secs   av.it.:   8.3
      thresh= 1.696E-07 alpha_mix =  0.300 |ddv_scf|^2 =  1.933E-14

      iter #  10 total cpu time :   141.0 secs   av.it.:  11.5
      thresh= 1.390E-08 alpha_mix =  0.300 |ddv_scf|^2 =  2.754E-15

     End of self-consistent calculation

     Convergence has been achieved 


     Representation #   2 mode #   2

     Self-consistent Calculation

      iter #   1 total cpu time :   156.2 secs   av.it.:   5.5
      thresh= 1.000E-02 alpha_mix =  0.300 |ddv_scf|^2 =  2.779E-04

      iter #   2 total cpu time :   164.5 secs   av.it.:   9.7
      thresh= 1.667E-03 alpha_mix =  0.300 |ddv_scf|^2 =  1.439E-02

      iter #   3 total cpu time :   173.6 secs   av.it.:   7.1
      thresh= 1.000E-02 alpha_mix =  0.300 |ddv_scf|^2 =  2.196E-08

      iter #   4 total cpu time :   183.4 secs   av.it.:  11.2
      thresh= 1.482E-05 alpha_mix =  0.300 |ddv_scf|^2 =  2.506E-09

      iter #   5 total cpu time :   198.6 secs   av.it.:  11.8
      thresh= 5.006E-06 alpha_mix =  0.300 |ddv_scf|^2 =  1.602E-10

      iter #   6 total cpu time :   210.5 secs   av.it.:  11.6
      thresh= 1.266E-06 alpha_mix =  0.300 |ddv_scf|^2 =  2.832E-09

      iter #   7 total cpu time :   220.2 secs   av.it.:   8.2
      thresh= 5.321E-06 alpha_mix =  0.300 |ddv_scf|^2 =  4.698E-11

      iter #   8 total cpu time :   228.2 secs   av.it.:  10.6
      thresh= 6.854E-07 alpha_mix =  0.300 |ddv_scf|^2 =  2.658E-12

      iter #   9 total cpu time :   237.6 secs   av.it.:  10.8
      thresh= 1.630E-07 alpha_mix =  0.300 |ddv_scf|^2 =  2.173E-12

      iter #  10 total cpu time :   246.3 secs   av.it.:  10.7
      thresh= 1.474E-07 alpha_mix =  0.300 |ddv_scf|^2 =  1.222E-13

      iter #  11 total cpu time :   256.2 secs   av.it.:  10.7
      thresh= 3.496E-08 alpha_mix =  0.300 |ddv_scf|^2 =  1.288E-14

      iter #  12 total cpu time :   266.5 secs   av.it.:  11.6
      thresh= 1.135E-08 alpha_mix =  0.300 |ddv_scf|^2 =  6.531E-14

      iter #  13 total cpu time :   276.7 secs   av.it.:   9.5
      thresh= 2.555E-08 alpha_mix =  0.300 |ddv_scf|^2 =  1.387E-14

      iter #  14 total cpu time :   286.2 secs   av.it.:  10.4
      thresh= 1.178E-08 alpha_mix =  0.300 |ddv_scf|^2 =  7.376E-16

     End of self-consistent calculation

     Convergence has been achieved 


     Representation #   3 mode #   3

     Self-consistent Calculation

      iter #   1 total cpu time :   304.7 secs   av.it.:   5.7
      thresh= 1.000E-02 alpha_mix =  0.300 |ddv_scf|^2 =  3.137E-04

      iter #   2 total cpu time :   314.1 secs   av.it.:   9.7
      thresh= 1.771E-03 alpha_mix =  0.300 |ddv_scf|^2 =  1.624E-02

      iter #   3 total cpu time :   323.5 secs   av.it.:   7.1
      thresh= 1.000E-02 alpha_mix =  0.300 |ddv_scf|^2 =  2.536E-08

      iter #   4 total cpu time :   332.3 secs   av.it.:  11.2
      thresh= 1.592E-05 alpha_mix =  0.300 |ddv_scf|^2 =  3.423E-09

      iter #   5 total cpu time :   341.1 secs   av.it.:  11.8
      thresh= 5.851E-06 alpha_mix =  0.300 |ddv_scf|^2 =  4.175E-10

      iter #   6 total cpu time :   349.9 secs   av.it.:  10.3
      thresh= 2.043E-06 alpha_mix =  0.300 |ddv_scf|^2 =  3.675E-09

      iter #   7 total cpu time :   360.3 secs   av.it.:   9.6
      thresh= 6.062E-06 alpha_mix =  0.300 |ddv_scf|^2 =  1.407E-11

      iter #   8 total cpu time :   371.0 secs   av.it.:  11.7
      thresh= 3.751E-07 alpha_mix =  0.300 |ddv_scf|^2 =  4.395E-12

      iter #   9 total cpu time :   380.6 secs   av.it.:  11.5
      thresh= 2.097E-07 alpha_mix =  0.300 |ddv_scf|^2 =  1.221E-11

      iter #  10 total cpu time :   390.1 secs   av.it.:   8.8
      thresh= 3.494E-07 alpha_mix =  0.300 |ddv_scf|^2 =  5.106E-13

      iter #  11 total cpu time :   401.3 secs   av.it.:  11.3
      thresh= 7.146E-08 alpha_mix =  0.300 |ddv_scf|^2 =  4.785E-14

      iter #  12 total cpu time :   411.0 secs   av.it.:  11.0
      thresh= 2.187E-08 alpha_mix =  0.300 |ddv_scf|^2 =  1.165E-13

      iter #  13 total cpu time :   420.6 secs   av.it.:   9.8
      thresh= 3.413E-08 alpha_mix =  0.300 |ddv_scf|^2 =  2.290E-14

      iter #  14 total cpu time :   430.2 secs   av.it.:  10.9
      thresh= 1.513E-08 alpha_mix =  0.300 |ddv_scf|^2 =  5.693E-16

     End of self-consistent calculation

     Convergence has been achieved 


     Representation #   4 mode #   4

     Self-consistent Calculation

      iter #   1 total cpu time :   445.5 secs   av.it.:   8.0
      thresh= 1.000E-02 alpha_mix =  0.300 |ddv_scf|^2 =  1.948E-02

      iter #   2 total cpu time :   456.6 secs   av.it.:  10.1
      thresh= 1.000E-02 alpha_mix =  0.300 |ddv_scf|^2 =  1.009E+00

      iter #   3 total cpu time :   465.9 secs   av.it.:   9.9
      thresh= 1.000E-02 alpha_mix =  0.300 |ddv_scf|^2 =  8.531E-07

      iter #   4 total cpu time :   473.3 secs   av.it.:  10.3
      thresh= 9.236E-05 alpha_mix =  0.300 |ddv_scf|^2 =  4.724E-08

      iter #   5 total cpu time :   482.1 secs   av.it.:  11.9
      thresh= 2.173E-05 alpha_mix =  0.300 |ddv_scf|^2 =  6.449E-09

      iter #   6 total cpu time :   491.1 secs   av.it.:  12.1
      thresh= 8.031E-06 alpha_mix =  0.300 |ddv_scf|^2 =  1.532E-09

      iter #   7 total cpu time :   499.5 secs   av.it.:  11.1
      thresh= 3.914E-06 alpha_mix =  0.300 |ddv_scf|^2 =  1.763E-11

      iter #   8 total cpu time :   509.3 secs   av.it.:  10.9
      thresh= 4.199E-07 alpha_mix =  0.300 |ddv_scf|^2 =  6.157E-12

      iter #   9 total cpu time :   518.2 secs   av.it.:  11.8
      thresh= 2.481E-07 alpha_mix =  0.300 |ddv_scf|^2 =  4.672E-12

      iter #  10 total cpu time :   527.6 secs   av.it.:   9.9
      thresh= 2.161E-07 alpha_mix =  0.300 |ddv_scf|^2 =  5.303E-14

      iter #  11 total cpu time :   537.4 secs   av.it.:  11.4
      thresh= 2.303E-08 alpha_mix =  0.300 |ddv_scf|^2 =  4.700E-14

      iter #  12 total cpu time :   546.9 secs   av.it.:  10.2
      thresh= 2.168E-08 alpha_mix =  0.300 |ddv_scf|^2 =  3.104E-13

      iter #  13 total cpu time :   555.7 secs   av.it.:   9.3
      thresh= 5.572E-08 alpha_mix =  0.300 |ddv_scf|^2 =  3.124E-15

     End of self-consistent calculation

     Convergence has been achieved 


     Representation #   5 mode #   5

     Self-consistent Calculation

      iter #   1 total cpu time :   567.5 secs   av.it.:   5.8
      thresh= 1.000E-02 alpha_mix =  0.300 |ddv_scf|^2 =  3.915E-04

      iter #   2 total cpu time :   576.0 secs   av.it.:   9.7
      thresh= 1.979E-03 alpha_mix =  0.300 |ddv_scf|^2 =  2.027E-02

      iter #   3 total cpu time :   584.7 secs   av.it.:   7.2
      thresh= 1.000E-02 alpha_mix =  0.300 |ddv_scf|^2 =  2.874E-08

      iter #   4 total cpu time :   593.0 secs   av.it.:  11.3
      thresh= 1.695E-05 alpha_mix =  0.300 |ddv_scf|^2 =  3.839E-09

      iter #   5 total cpu time :   601.7 secs   av.it.:  11.9
      thresh= 6.196E-06 alpha_mix =  0.300 |ddv_scf|^2 =  4.029E-10

      iter #   6 total cpu time :   611.4 secs   av.it.:  10.3
      thresh= 2.007E-06 alpha_mix =  0.300 |ddv_scf|^2 =  3.397E-09

      iter #   7 total cpu time :   620.9 secs   av.it.:   9.5
      thresh= 5.829E-06 alpha_mix =  0.300 |ddv_scf|^2 =  1.167E-11

      iter #   8 total cpu time :   631.1 secs   av.it.:  11.9
      thresh= 3.416E-07 alpha_mix =  0.300 |ddv_scf|^2 =  2.707E-12

      iter #   9 total cpu time :   642.4 secs   av.it.:  12.0
      thresh= 1.645E-07 alpha_mix =  0.300 |ddv_scf|^2 =  1.747E-12

      iter #  10 total cpu time :   651.3 secs   av.it.:   9.8
      thresh= 1.322E-07 alpha_mix =  0.300 |ddv_scf|^2 =  1.572E-12

      iter #  11 total cpu time :   662.5 secs   av.it.:  10.4
      thresh= 1.254E-07 alpha_mix =  0.300 |ddv_scf|^2 =  2.639E-14

      iter #  12 total cpu time :   672.8 secs   av.it.:  11.6
      thresh= 1.624E-08 alpha_mix =  0.300 |ddv_scf|^2 =  6.691E-14

      iter #  13 total cpu time :   684.0 secs   av.it.:  10.2
      thresh= 2.587E-08 alpha_mix =  0.300 |ddv_scf|^2 =  3.395E-14

      iter #  14 total cpu time :   693.1 secs   av.it.:  10.5
      thresh= 1.842E-08 alpha_mix =  0.300 |ddv_scf|^2 =  5.228E-16

     End of self-consistent calculation

     Convergence has been achieved 


     Representation #   6 mode #   6

     Self-consistent Calculation

      iter #   1 total cpu time :   706.7 secs   av.it.:   5.7
      thresh= 1.000E-02 alpha_mix =  0.300 |ddv_scf|^2 =  3.557E-04

      iter #   2 total cpu time :   716.0 secs   av.it.:   9.6
      thresh= 1.886E-03 alpha_mix =  0.300 |ddv_scf|^2 =  1.841E-02

      iter #   3 total cpu time :   727.1 secs   av.it.:   7.2
      thresh= 1.000E-02 alpha_mix =  0.300 |ddv_scf|^2 =  2.539E-08

      iter #   4 total cpu time :   737.5 secs   av.it.:  11.3
      thresh= 1.593E-05 alpha_mix =  0.300 |ddv_scf|^2 =  2.814E-09

      iter #   5 total cpu time :   748.3 secs   av.it.:  12.1
      thresh= 5.305E-06 alpha_mix =  0.300 |ddv_scf|^2 =  7.261E-10

      iter #   6 total cpu time :   758.5 secs   av.it.:   8.8
      thresh= 2.695E-06 alpha_mix =  0.300 |ddv_scf|^2 =  9.723E-10

      iter #   7 total cpu time :   767.5 secs   av.it.:  10.2
      thresh= 3.118E-06 alpha_mix =  0.300 |ddv_scf|^2 =  4.775E-11

      iter #   8 total cpu time :   778.5 secs   av.it.:  10.9
      thresh= 6.910E-07 alpha_mix =  0.300 |ddv_scf|^2 =  1.435E-12

      iter #   9 total cpu time :   789.3 secs   av.it.:  11.4
      thresh= 1.198E-07 alpha_mix =  0.300 |ddv_scf|^2 =  1.246E-12

      iter #  10 total cpu time :   799.6 secs   av.it.:  11.1
      thresh= 1.116E-07 alpha_mix =  0.300 |ddv_scf|^2 =  9.896E-14

      iter #  11 total cpu time :   810.1 secs   av.it.:  10.9
      thresh= 3.146E-08 alpha_mix =  0.300 |ddv_scf|^2 =  1.330E-14

      iter #  12 total cpu time :   821.5 secs   av.it.:  11.0
      thresh= 1.153E-08 alpha_mix =  0.300 |ddv_scf|^2 =  5.147E-14

      iter #  13 total cpu time :   830.4 secs   av.it.:  10.5
      thresh= 2.269E-08 alpha_mix =  0.300 |ddv_scf|^2 =  5.802E-15

     End of self-consistent calculation

     Convergence has been achieved 


     Representation #   7 mode #   7

     Self-consistent Calculation

      iter #   1 total cpu time :   850.5 secs   av.it.:   3.5
      thresh= 1.000E-02 alpha_mix =  0.300 |ddv_scf|^2 =  5.117E-10

      iter #   2 total cpu time :   860.9 secs   av.it.:  12.2
      thresh= 2.262E-06 alpha_mix =  0.300 |ddv_scf|^2 =  2.549E-10

      iter #   3 total cpu time :   869.8 secs   av.it.:  11.4
      thresh= 1.596E-06 alpha_mix =  0.300 |ddv_scf|^2 =  3.615E-13

      iter #   4 total cpu time :   882.9 secs   av.it.:  10.9
      thresh= 6.012E-08 alpha_mix =  0.300 |ddv_scf|^2 =  1.377E-13

      iter #   5 total cpu time :   893.1 secs   av.it.:  11.7
      thresh= 3.711E-08 alpha_mix =  0.300 |ddv_scf|^2 =  3.038E-16

     End of self-consistent calculation

     Convergence has been achieved 


     Representation #   8 mode #   8

     Self-consistent Calculation

      iter #   1 total cpu time :   909.0 secs   av.it.:   3.5
      thresh= 1.000E-02 alpha_mix =  0.300 |ddv_scf|^2 =  5.117E-10

      iter #   2 total cpu time :   919.5 secs   av.it.:  12.2
      thresh= 2.262E-06 alpha_mix =  0.300 |ddv_scf|^2 =  2.549E-10

      iter #   3 total cpu time :   930.2 secs   av.it.:  11.4
      thresh= 1.596E-06 alpha_mix =  0.300 |ddv_scf|^2 =  3.615E-13

      iter #   4 total cpu time :   939.8 secs   av.it.:  10.9
      thresh= 6.012E-08 alpha_mix =  0.300 |ddv_scf|^2 =  1.377E-13

      iter #   5 total cpu time :   949.5 secs   av.it.:  11.7
      thresh= 3.711E-08 alpha_mix =  0.300 |ddv_scf|^2 =  3.038E-16

     End of self-consistent calculation

     Convergence has been achieved 


     Representation #   9 mode #   9

     Self-consistent Calculation

      iter #   1 total cpu time :   965.8 secs   av.it.:   4.9
      thresh= 1.000E-02 alpha_mix =  0.300 |ddv_scf|^2 =  2.161E-08

      iter #   2 total cpu time :   977.1 secs   av.it.:  11.2
      thresh= 1.470E-05 alpha_mix =  0.300 |ddv_scf|^2 =  6.747E-09

      iter #   3 total cpu time :   987.9 secs   av.it.:  12.2
      thresh= 8.214E-06 alpha_mix =  0.300 |ddv_scf|^2 =  8.141E-11

      iter #   4 total cpu time :   998.4 secs   av.it.:  12.8
      thresh= 9.023E-07 alpha_mix =  0.300 |ddv_scf|^2 =  3.879E-12

      iter #   5 total cpu time :  1009.0 secs   av.it.:  12.1
      thresh= 1.969E-07 alpha_mix =  0.300 |ddv_scf|^2 =  4.214E-13

      iter #   6 total cpu time :  1019.2 secs   av.it.:  12.1
      thresh= 6.492E-08 alpha_mix =  0.300 |ddv_scf|^2 =  2.642E-15

     End of self-consistent calculation

     Convergence has been achieved 


     Representation #  10 mode #  10

     Self-consistent Calculation

      iter #   1 total cpu time :  1035.1 secs   av.it.:   4.9
      thresh= 1.000E-02 alpha_mix =  0.300 |ddv_scf|^2 =  2.161E-08

      iter #   2 total cpu time :  1044.1 secs   av.it.:  11.2
      thresh= 1.470E-05 alpha_mix =  0.300 |ddv_scf|^2 =  6.747E-09

      iter #   3 total cpu time :  1054.5 secs   av.it.:  12.2
      thresh= 8.214E-06 alpha_mix =  0.300 |ddv_scf|^2 =  8.141E-11

      iter #   4 total cpu time :  1065.6 secs   av.it.:  12.8
      thresh= 9.023E-07 alpha_mix =  0.300 |ddv_scf|^2 =  3.879E-12

      iter #   5 total cpu time :  1077.2 secs   av.it.:  12.1
      thresh= 1.969E-07 alpha_mix =  0.300 |ddv_scf|^2 =  4.214E-13

      iter #   6 total cpu time :  1090.6 secs   av.it.:  12.1
      thresh= 6.492E-08 alpha_mix =  0.300 |ddv_scf|^2 =  2.642E-15

     End of self-consistent calculation

     Convergence has been achieved 


     Representation #  11 mode #  11

     Self-consistent Calculation

      iter #   1 total cpu time :  1107.3 secs   av.it.:   4.6
      thresh= 1.000E-02 alpha_mix =  0.300 |ddv_scf|^2 =  3.518E-08

      iter #   2 total cpu time :  1117.3 secs   av.it.:  11.1
      thresh= 1.876E-05 alpha_mix =  0.300 |ddv_scf|^2 =  6.459E-09

      iter #   3 total cpu time :  1126.6 secs   av.it.:  11.8
      thresh= 8.037E-06 alpha_mix =  0.300 |ddv_scf|^2 =  2.087E-10

      iter #   4 total cpu time :  1136.8 secs   av.it.:  11.8
      thresh= 1.445E-06 alpha_mix =  0.300 |ddv_scf|^2 =  1.633E-11

      iter #   5 total cpu time :  1147.4 secs   av.it.:  11.8
      thresh= 4.041E-07 alpha_mix =  0.300 |ddv_scf|^2 =  1.177E-12

      iter #   6 total cpu time :  1157.9 secs   av.it.:  12.1
      thresh= 1.085E-07 alpha_mix =  0.300 |ddv_scf|^2 =  5.001E-14

      iter #   7 total cpu time :  1167.7 secs   av.it.:  12.4
      thresh= 2.236E-08 alpha_mix =  0.300 |ddv_scf|^2 =  4.003E-16

     End of self-consistent calculation

     Convergence has been achieved 


     Representation #  12 mode #  12

     Self-consistent Calculation

      iter #   1 total cpu time :  1182.5 secs   av.it.:   4.3
      thresh= 1.000E-02 alpha_mix =  0.300 |ddv_scf|^2 =  1.356E-08

      iter #   2 total cpu time :  1192.8 secs   av.it.:  11.2
      thresh= 1.164E-05 alpha_mix =  0.300 |ddv_scf|^2 =  3.354E-09

      iter #   3 total cpu time :  1203.1 secs   av.it.:  12.0
      thresh= 5.792E-06 alpha_mix =  0.300 |ddv_scf|^2 =  7.050E-11

      iter #   4 total cpu time :  1214.4 secs   av.it.:  11.5
      thresh= 8.397E-07 alpha_mix =  0.300 |ddv_scf|^2 =  1.218E-11

      iter #   5 total cpu time :  1226.6 secs   av.it.:  11.9
      thresh= 3.491E-07 alpha_mix =  0.300 |ddv_scf|^2 =  4.557E-13

      iter #   6 total cpu time :  1236.4 secs   av.it.:  12.0
      thresh= 6.751E-08 alpha_mix =  0.300 |ddv_scf|^2 =  3.046E-14

      iter #   7 total cpu time :  1245.4 secs   av.it.:  12.6
      thresh= 1.745E-08 alpha_mix =  0.300 |ddv_scf|^2 =  4.418E-16

     End of self-consistent calculation

     Convergence has been achieved 


     Representation #  13 mode #  13

     Self-consistent Calculation

      iter #   1 total cpu time :  1261.7 secs   av.it.:   4.5
      thresh= 1.000E-02 alpha_mix =  0.300 |ddv_scf|^2 =  4.602E-08

      iter #   2 total cpu time :  1272.0 secs   av.it.:  11.0
      thresh= 2.145E-05 alpha_mix =  0.300 |ddv_scf|^2 =  6.262E-09

      iter #   3 total cpu time :  1282.4 secs   av.it.:  11.7
      thresh= 7.914E-06 alpha_mix =  0.300 |ddv_scf|^2 =  1.458E-10

      iter #   4 total cpu time :  1292.3 secs   av.it.:  12.0
      thresh= 1.208E-06 alpha_mix =  0.300 |ddv_scf|^2 =  1.169E-11

      iter #   5 total cpu time :  1301.7 secs   av.it.:  11.6
      thresh= 3.419E-07 alpha_mix =  0.300 |ddv_scf|^2 =  1.116E-12

      iter #   6 total cpu time :  1312.4 secs   av.it.:  11.7
      thresh= 1.057E-07 alpha_mix =  0.300 |ddv_scf|^2 =  2.759E-14

      iter #   7 total cpu time :  1321.9 secs   av.it.:  12.5
      thresh= 1.661E-08 alpha_mix =  0.300 |ddv_scf|^2 =  4.983E-16

     End of self-consistent calculation

     Convergence has been achieved 


     Representation #  14 mode #  14

     Self-consistent Calculation

      iter #   1 total cpu time :  1336.1 secs   av.it.:   4.7
      thresh= 1.000E-02 alpha_mix =  0.300 |ddv_scf|^2 =  6.471E-08

      iter #   2 total cpu time :  1346.5 secs   av.it.:  11.1
      thresh= 2.544E-05 alpha_mix =  0.300 |ddv_scf|^2 =  8.223E-09

      iter #   3 total cpu time :  1359.0 secs   av.it.:  11.8
      thresh= 9.068E-06 alpha_mix =  0.300 |ddv_scf|^2 =  1.263E-10

      iter #   4 total cpu time :  1368.6 secs   av.it.:  11.9
      thresh= 1.124E-06 alpha_mix =  0.300 |ddv_scf|^2 =  9.053E-12

      iter #   5 total cpu time :  1378.2 secs   av.it.:  11.6
      thresh= 3.009E-07 alpha_mix =  0.300 |ddv_scf|^2 =  1.011E-12

      iter #   6 total cpu time :  1387.1 secs   av.it.:  12.0
      thresh= 1.005E-07 alpha_mix =  0.300 |ddv_scf|^2 =  3.227E-14

      iter #   7 total cpu time :  1396.4 secs   av.it.:  12.5
      thresh= 1.796E-08 alpha_mix =  0.300 |ddv_scf|^2 =  3.338E-16

     End of self-consistent calculation

     Convergence has been achieved 


     Representation #  15 mode #  15

     Self-consistent Calculation

      iter #   1 total cpu time :  1410.5 secs   av.it.:   4.5
      thresh= 1.000E-02 alpha_mix =  0.300 |ddv_scf|^2 =  3.208E-08

      iter #   2 total cpu time :  1419.7 secs   av.it.:  11.2
      thresh= 1.791E-05 alpha_mix =  0.300 |ddv_scf|^2 =  5.351E-09

      iter #   3 total cpu time :  1429.8 secs   av.it.:  11.8
      thresh= 7.315E-06 alpha_mix =  0.300 |ddv_scf|^2 =  1.682E-10

      iter #   4 total cpu time :  1440.7 secs   av.it.:  11.8
      thresh= 1.297E-06 alpha_mix =  0.300 |ddv_scf|^2 =  1.342E-11

      iter #   5 total cpu time :  1453.3 secs   av.it.:  11.9
      thresh= 3.664E-07 alpha_mix =  0.300 |ddv_scf|^2 =  1.215E-12

      iter #   6 total cpu time :  1464.3 secs   av.it.:  12.1
      thresh= 1.102E-07 alpha_mix =  0.300 |ddv_scf|^2 =  3.629E-14

      iter #   7 total cpu time :  1473.7 secs   av.it.:  12.5
      thresh= 1.905E-08 alpha_mix =  0.300 |ddv_scf|^2 =  2.341E-16

     End of self-consistent calculation

     Convergence has been achieved 


     Representation #  16 modes #  16  17

     Self-consistent Calculation

      iter #   1 total cpu time :  1495.9 secs   av.it.:   4.5
      thresh= 1.000E-02 alpha_mix =  0.300 |ddv_scf|^2 =  3.186E-09

      iter #   2 total cpu time :  1511.8 secs   av.it.:  12.6
      thresh= 5.644E-06 alpha_mix =  0.300 |ddv_scf|^2 =  5.540E-10

      iter #   3 total cpu time :  1527.9 secs   av.it.:  13.1
      thresh= 2.354E-06 alpha_mix =  0.300 |ddv_scf|^2 =  4.611E-11

      iter #   4 total cpu time :  1544.1 secs   av.it.:  13.5
      thresh= 6.790E-07 alpha_mix =  0.300 |ddv_scf|^2 =  1.521E-12

      iter #   5 total cpu time :  1560.2 secs   av.it.:  13.3
      thresh= 1.233E-07 alpha_mix =  0.300 |ddv_scf|^2 =  1.976E-13

      iter #   6 total cpu time :  1576.7 secs   av.it.:  13.4
      thresh= 4.446E-08 alpha_mix =  0.300 |ddv_scf|^2 =  1.710E-14

      iter #   7 total cpu time :  1591.7 secs   av.it.:  13.6
      thresh= 1.308E-08 alpha_mix =  0.300 |ddv_scf|^2 =  1.680E-16

     End of self-consistent calculation

     Convergence has been achieved 


     Representation #  17 modes #  18  19

     Self-consistent Calculation

      iter #   1 total cpu time :  1615.5 secs   av.it.:   4.5
      thresh= 1.000E-02 alpha_mix =  0.300 |ddv_scf|^2 =  4.513E-09

      iter #   2 total cpu time :  1631.1 secs   av.it.:  12.5
      thresh= 6.718E-06 alpha_mix =  0.300 |ddv_scf|^2 =  1.012E-09

      iter #   3 total cpu time :  1647.6 secs   av.it.:  13.3
      thresh= 3.180E-06 alpha_mix =  0.300 |ddv_scf|^2 =  4.764E-11

      iter #   4 total cpu time :  1664.0 secs   av.it.:  13.3
      thresh= 6.902E-07 alpha_mix =  0.300 |ddv_scf|^2 =  3.922E-12

      iter #   5 total cpu time :  1680.2 secs   av.it.:  13.3
      thresh= 1.980E-07 alpha_mix =  0.300 |ddv_scf|^2 =  2.204E-13

      iter #   6 total cpu time :  1698.3 secs   av.it.:  13.3
      thresh= 4.695E-08 alpha_mix =  0.300 |ddv_scf|^2 =  3.314E-14

      iter #   7 total cpu time :  1715.7 secs   av.it.:  13.5
      thresh= 1.820E-08 alpha_mix =  0.300 |ddv_scf|^2 =  4.081E-16

     End of self-consistent calculation

     Convergence has been achieved 


     Representation #  18 modes #  20  21

     Self-consistent Calculation

      iter #   1 total cpu time :  1743.0 secs   av.it.:   4.4
      thresh= 1.000E-02 alpha_mix =  0.300 |ddv_scf|^2 =  5.917E-09

      iter #   2 total cpu time :  1757.0 secs   av.it.:  12.5
      thresh= 7.692E-06 alpha_mix =  0.300 |ddv_scf|^2 =  8.400E-10

      iter #   3 total cpu time :  1773.5 secs   av.it.:  13.0
      thresh= 2.898E-06 alpha_mix =  0.300 |ddv_scf|^2 =  4.136E-11

      iter #   4 total cpu time :  1789.1 secs   av.it.:  13.5
      thresh= 6.431E-07 alpha_mix =  0.300 |ddv_scf|^2 =  1.517E-12

      iter #   5 total cpu time :  1804.8 secs   av.it.:  13.2
      thresh= 1.232E-07 alpha_mix =  0.300 |ddv_scf|^2 =  2.359E-13

      iter #   6 total cpu time :  1821.4 secs   av.it.:  13.4
      thresh= 4.857E-08 alpha_mix =  0.300 |ddv_scf|^2 =  1.646E-14

      iter #   7 total cpu time :  1835.3 secs   av.it.:  13.7
      thresh= 1.283E-08 alpha_mix =  0.300 |ddv_scf|^2 =  2.806E-16

     End of self-consistent calculation

     Convergence has been achieved 


     Representation #  19 modes #  22  23

     Self-consistent Calculation

      iter #   1 total cpu time :  1858.3 secs   av.it.:   4.6
      thresh= 1.000E-02 alpha_mix =  0.300 |ddv_scf|^2 =  4.305E-09

      iter #   2 total cpu time :  1873.4 secs   av.it.:  12.5
      thresh= 6.561E-06 alpha_mix =  0.300 |ddv_scf|^2 =  1.058E-09

      iter #   3 total cpu time :  1888.5 secs   av.it.:  13.3
      thresh= 3.253E-06 alpha_mix =  0.300 |ddv_scf|^2 =  3.472E-11

      iter #   4 total cpu time :  1903.3 secs   av.it.:  13.1
      thresh= 5.892E-07 alpha_mix =  0.300 |ddv_scf|^2 =  3.801E-12

      iter #   5 total cpu time :  1918.2 secs   av.it.:  13.5
      thresh= 1.950E-07 alpha_mix =  0.300 |ddv_scf|^2 =  1.705E-13

      iter #   6 total cpu time :  1933.3 secs   av.it.:  13.2
      thresh= 4.129E-08 alpha_mix =  0.300 |ddv_scf|^2 =  3.014E-14

      iter #   7 total cpu time :  1948.9 secs   av.it.:  13.5
      thresh= 1.736E-08 alpha_mix =  0.300 |ddv_scf|^2 =  3.994E-16

     End of self-consistent calculation

     Convergence has been achieved 


     Representation #  20 modes #  24  25

     Self-consistent Calculation

      iter #   1 total cpu time :  1973.9 secs   av.it.:   4.8
      thresh= 1.000E-02 alpha_mix =  0.300 |ddv_scf|^2 =  9.762E-09

      iter #   2 total cpu time :  1989.3 secs   av.it.:  12.5
      thresh= 9.880E-06 alpha_mix =  0.300 |ddv_scf|^2 =  1.647E-09

      iter #   3 total cpu time :  2004.4 secs   av.it.:  13.2
      thresh= 4.059E-06 alpha_mix =  0.300 |ddv_scf|^2 =  6.949E-11

      iter #   4 total cpu time :  2021.9 secs   av.it.:  13.4
      thresh= 8.336E-07 alpha_mix =  0.300 |ddv_scf|^2 =  4.639E-12

      iter #   5 total cpu time :  2037.7 secs   av.it.:  13.5
      thresh= 2.154E-07 alpha_mix =  0.300 |ddv_scf|^2 =  1.881E-13

      iter #   6 total cpu time :  2054.7 secs   av.it.:  13.3
      thresh= 4.337E-08 alpha_mix =  0.300 |ddv_scf|^2 =  2.737E-14

      iter #   7 total cpu time :  2070.4 secs   av.it.:  13.5
      thresh= 1.654E-08 alpha_mix =  0.300 |ddv_scf|^2 =  2.849E-16

     End of self-consistent calculation

     Convergence has been achieved 


     Representation #  21 modes #  26  27

     Self-consistent Calculation

      iter #   1 total cpu time :  2094.7 secs   av.it.:   4.8
      thresh= 1.000E-02 alpha_mix =  0.300 |ddv_scf|^2 =  1.265E-08

      iter #   2 total cpu time :  2109.9 secs   av.it.:  12.5
      thresh= 1.125E-05 alpha_mix =  0.300 |ddv_scf|^2 =  1.899E-09

      iter #   3 total cpu time :  2125.5 secs   av.it.:  13.1
      thresh= 4.358E-06 alpha_mix =  0.300 |ddv_scf|^2 =  5.969E-11

      iter #   4 total cpu time :  2142.9 secs   av.it.:  13.4
      thresh= 7.726E-07 alpha_mix =  0.300 |ddv_scf|^2 =  4.119E-12

      iter #   5 total cpu time :  2159.9 secs   av.it.:  13.4
      thresh= 2.030E-07 alpha_mix =  0.300 |ddv_scf|^2 =  2.862E-13

      iter #   6 total cpu time :  2174.7 secs   av.it.:  13.5
      thresh= 5.350E-08 alpha_mix =  0.300 |ddv_scf|^2 =  1.770E-14

      iter #   7 total cpu time :  2190.2 secs   av.it.:  13.9
      thresh= 1.331E-08 alpha_mix =  0.300 |ddv_scf|^2 =  1.814E-16

     End of self-consistent calculation

     Convergence has been achieved 


     Representation #  22 modes #  28  29

     Self-consistent Calculation

      iter #   1 total cpu time :  2218.7 secs   av.it.:   7.0
      thresh= 1.000E-02 alpha_mix =  0.300 |ddv_scf|^2 =  3.273E-07

      iter #   2 total cpu time :  2234.8 secs   av.it.:  12.3
      thresh= 5.721E-05 alpha_mix =  0.300 |ddv_scf|^2 =  5.343E-08

      iter #   3 total cpu time :  2250.9 secs   av.it.:  12.8
      thresh= 2.311E-05 alpha_mix =  0.300 |ddv_scf|^2 =  5.561E-09

      iter #   4 total cpu time :  2268.8 secs   av.it.:  13.4
      thresh= 7.458E-06 alpha_mix =  0.300 |ddv_scf|^2 =  1.277E-10

      iter #   5 total cpu time :  2285.2 secs   av.it.:  13.0
      thresh= 1.130E-06 alpha_mix =  0.300 |ddv_scf|^2 =  6.133E-12

      iter #   6 total cpu time :  2300.9 secs   av.it.:  12.6
      thresh= 2.476E-07 alpha_mix =  0.300 |ddv_scf|^2 =  1.347E-12

      iter #   7 total cpu time :  2317.1 secs   av.it.:  13.1
      thresh= 1.161E-07 alpha_mix =  0.300 |ddv_scf|^2 =  8.288E-15

     End of self-consistent calculation

     Convergence has been achieved 


     Representation #  23 modes #  30  31

     Self-consistent Calculation

      iter #   1 total cpu time :  2341.9 secs   av.it.:   4.8
      thresh= 1.000E-02 alpha_mix =  0.300 |ddv_scf|^2 =  1.424E-08

      iter #   2 total cpu time :  2356.6 secs   av.it.:  12.4
      thresh= 1.193E-05 alpha_mix =  0.300 |ddv_scf|^2 =  1.755E-09

      iter #   3 total cpu time :  2373.4 secs   av.it.:  13.0
      thresh= 4.190E-06 alpha_mix =  0.300 |ddv_scf|^2 =  4.136E-11

      iter #   4 total cpu time :  2391.5 secs   av.it.:  13.6
      thresh= 6.431E-07 alpha_mix =  0.300 |ddv_scf|^2 =  1.385E-12

      iter #   5 total cpu time :  2408.8 secs   av.it.:  12.9
      thresh= 1.177E-07 alpha_mix =  0.300 |ddv_scf|^2 =  1.997E-13

      iter #   6 total cpu time :  2426.5 secs   av.it.:  13.4
      thresh= 4.469E-08 alpha_mix =  0.300 |ddv_scf|^2 =  1.744E-14

      iter #   7 total cpu time :  2442.7 secs   av.it.:  13.6
      thresh= 1.321E-08 alpha_mix =  0.300 |ddv_scf|^2 =  2.294E-16

     End of self-consistent calculation

     Convergence has been achieved 


     Representation #  24 modes #  32  33

     Self-consistent Calculation

      iter #   1 total cpu time :  2471.6 secs   av.it.:   4.5
      thresh= 1.000E-02 alpha_mix =  0.300 |ddv_scf|^2 =  6.031E-09

      iter #   2 total cpu time :  2486.9 secs   av.it.:  12.6
      thresh= 7.766E-06 alpha_mix =  0.300 |ddv_scf|^2 =  8.851E-10

      iter #   3 total cpu time :  2504.1 secs   av.it.:  13.1
      thresh= 2.975E-06 alpha_mix =  0.300 |ddv_scf|^2 =  5.027E-11

      iter #   4 total cpu time :  2520.2 secs   av.it.:  13.6
      thresh= 7.090E-07 alpha_mix =  0.300 |ddv_scf|^2 =  1.950E-12

      iter #   5 total cpu time :  2537.0 secs   av.it.:  13.5
      thresh= 1.396E-07 alpha_mix =  0.300 |ddv_scf|^2 =  1.703E-13

      iter #   6 total cpu time :  2553.2 secs   av.it.:  13.4
      thresh= 4.127E-08 alpha_mix =  0.300 |ddv_scf|^2 =  2.007E-14

      iter #   7 total cpu time :  2568.3 secs   av.it.:  13.6
      thresh= 1.417E-08 alpha_mix =  0.300 |ddv_scf|^2 =  3.078E-16

     End of self-consistent calculation

     Convergence has been achieved 
 
     Number of q in the star =    6
     List of q in the star:
          1   0.235702260   0.000000000   0.000000000
          2  -0.235702260   0.000000000   0.000000000
          3   0.000000000   0.000000000   0.235702260
          4   0.000000000   0.000000000  -0.235702260
          5   0.000000000   0.235702260   0.000000000
          6   0.000000000  -0.235702260   0.000000000

     Diagonalizing the dynamical matrix

     q = (    0.235702260   0.000000000   0.000000000 ) 

 **************************************************************************
     freq (    1) =       3.042048 [THz] =     101.471809 [cm-1]
     freq (    2) =       3.042048 [THz] =     101.471809 [cm-1]
     freq (    3) =       7.013239 [THz] =     233.936487 [cm-1]
     freq (    4) =      22.248001 [THz] =     742.113419 [cm-1]
     freq (    5) =      23.800466 [THz] =     793.898093 [cm-1]
     freq (    6) =      23.800466 [THz] =     793.898093 [cm-1]
     freq (    7) =      29.552113 [THz] =     985.752395 [cm-1]
     freq (    8) =      29.552113 [THz] =     985.752395 [cm-1]
     freq (    9) =      31.341452 [THz] =    1045.438310 [cm-1]
     freq (   10) =      33.655043 [THz] =    1122.611386 [cm-1]
     freq (   11) =      33.655043 [THz] =    1122.611386 [cm-1]
     freq (   12) =      33.746410 [THz] =    1125.659059 [cm-1]
     freq (   13) =      36.766158 [THz] =    1226.387021 [cm-1]
     freq (   14) =      36.766158 [THz] =    1226.387021 [cm-1]
     freq (   15) =      37.161898 [THz] =    1239.587491 [cm-1]
     freq (   16) =      38.540061 [THz] =    1285.558042 [cm-1]
     freq (   17) =      38.540061 [THz] =    1285.558042 [cm-1]
     freq (   18) =      39.381334 [THz] =    1313.619900 [cm-1]
     freq (   19) =      41.210804 [THz] =    1374.644449 [cm-1]
     freq (   20) =      42.175885 [THz] =    1406.836089 [cm-1]
     freq (   21) =      42.175885 [THz] =    1406.836089 [cm-1]
     freq (   22) =      42.978506 [THz] =    1433.608631 [cm-1]
     freq (   23) =      43.453170 [THz] =    1449.441740 [cm-1]
     freq (   24) =      45.903303 [THz] =    1531.169359 [cm-1]
     freq (   25) =      48.076902 [THz] =    1603.672848 [cm-1]
     freq (   26) =      51.984984 [THz] =    1734.032400 [cm-1]
     freq (   27) =      51.984984 [THz] =    1734.032400 [cm-1]
     freq (   28) =      52.434578 [THz] =    1749.029273 [cm-1]
     freq (   29) =      52.873171 [THz] =    1763.659129 [cm-1]
     freq (   30) =      52.873171 [THz] =    1763.659129 [cm-1]
     freq (   31) =      54.140551 [THz] =    1805.934392 [cm-1]
     freq (   32) =      55.959037 [THz] =    1866.592554 [cm-1]
     freq (   33) =      65.862560 [THz] =    2196.938517 [cm-1]
 **************************************************************************

     Mode symmetry, C_4v (4mm)  point group:

     freq (   1-   2) =        101.5  [cm-1]   --> E    G_5 D_5       
     freq (   3-   3) =        233.9  [cm-1]   --> A_1  G_1 D_1       
     freq (   4-   4) =        742.1  [cm-1]   --> B_2  G_4 D_2'      
     freq (   5-   6) =        793.9  [cm-1]   --> E    G_5 D_5       
     freq (   7-   8) =        985.8  [cm-1]   --> E    G_5 D_5       
     freq (   9-   9) =       1045.4  [cm-1]   --> B_2  G_4 D_2'      
     freq (  10-  11) =       1122.6  [cm-1]   --> E    G_5 D_5       
     freq (  12-  12) =       1125.7  [cm-1]   --> A_1  G_1 D_1       
     freq (  13-  14) =       1226.4  [cm-1]   --> E    G_5 D_5       
     freq (  15-  15) =       1239.6  [cm-1]   --> A_1  G_1 D_1       
     freq (  16-  17) =       1285.6  [cm-1]   --> E    G_5 D_5       
     freq (  18-  18) =       1313.6  [cm-1]   --> B_1  G_3 D_2       
     freq (  19-  19) =       1374.6  [cm-1]   --> A_2  G_2 D_1'      
     freq (  20-  21) =       1406.8  [cm-1]   --> E    G_5 D_5       
     freq (  22-  22) =       1433.6  [cm-1]   --> A_2  G_2 D_1'      
     freq (  23-  23) =       1449.4  [cm-1]   --> B_2  G_4 D_2'      
     freq (  24-  24) =       1531.2  [cm-1]   --> B_1  G_3 D_2       
     freq (  25-  25) =       1603.7  [cm-1]   --> A_1  G_1 D_1       
     freq (  26-  27) =       1734.0  [cm-1]   --> E    G_5 D_5       
     freq (  28-  28) =       1749.0  [cm-1]   --> B_2  G_4 D_2'      
     freq (  29-  30) =       1763.7  [cm-1]   --> E    G_5 D_5       
     freq (  31-  31) =       1805.9  [cm-1]   --> A_1  G_1 D_1       
     freq (  32-  32) =       1866.6  [cm-1]   --> B_2  G_4 D_2'      
     freq (  33-  33) =       2196.9  [cm-1]   --> A_1  G_1 D_1       
     Electron-phonon interaction  ...

     Gaussian Broadening:   0.005 Ry, ngauss=   0
     DOS =  5.706849 states/spin/Ry/Unit Cell at Ef= 20.445499 eV
     lambda(    1)=  0.6475   gamma=   32.66 GHz
     lambda(    2)=  0.5231   gamma=   26.38 GHz
     lambda(    3)=  0.0700   gamma=   18.78 GHz
     lambda(    4)=  0.3473   gamma=  936.77 GHz
     lambda(    5)=  0.3239   gamma=  999.76 GHz
     lambda(    6)=  0.4496   gamma= 1387.92 GHz
     lambda(    7)=  0.0187   gamma=   89.21 GHz
     lambda(    8)=  0.0183   gamma=   86.89 GHz
     lambda(    9)=  0.0881   gamma=  471.82 GHz
     lambda(   10)=  0.1747   gamma= 1078.56 GHz
     lambda(   11)=  0.1578   gamma=  974.14 GHz
     lambda(   12)=  0.0560   gamma=  347.54 GHz
     lambda(   13)=  0.0586   gamma=  431.32 GHz
     lambda(   14)=  0.0798   gamma=  588.21 GHz
     lambda(   15)=  0.2044   gamma= 1538.53 GHz
     lambda(   16)=  0.1270   gamma= 1027.94 GHz
     lambda(   17)=  0.1082   gamma=  875.73 GHz
     lambda(   18)=  0.1384   gamma= 1169.83 GHz
     lambda(   19)=  0.0080   gamma=   74.22 GHz
     lambda(   20)=  0.0258   gamma=  250.56 GHz
     lambda(   21)=  0.0242   gamma=  234.26 GHz
     lambda(   22)=  0.0176   gamma=  177.05 GHz
     lambda(   23)=  0.0194   gamma=  199.18 GHz
     lambda(   24)=  0.1021   gamma= 1172.53 GHz
     lambda(   25)=  0.3164   gamma= 3985.55 GHz
     lambda(   26)=  0.0272   gamma=  400.25 GHz
     lambda(   27)=  0.0294   gamma=  432.37 GHz
     lambda(   28)=  0.0190   gamma=  284.26 GHz
     lambda(   29)=  0.0246   gamma=  374.95 GHz
     lambda(   30)=  0.0192   gamma=  293.21 GHz
     lambda(   31)=  0.0197   gamma=  315.30 GHz
     lambda(   32)=  0.0034   gamma=   57.18 GHz
     lambda(   33)=  0.0238   gamma=  562.62 GHz
     Gaussian Broadening:   0.010 Ry, ngauss=   0
     DOS =  5.493178 states/spin/Ry/Unit Cell at Ef= 20.444376 eV
     lambda(    1)=  0.3874   gamma=   18.81 GHz
     lambda(    2)=  0.3490   gamma=   16.94 GHz
     lambda(    3)=  0.0527   gamma=   13.60 GHz
     lambda(    4)=  0.2610   gamma=  677.79 GHz
     lambda(    5)=  0.1704   gamma=  506.21 GHz
     lambda(    6)=  0.2085   gamma=  619.47 GHz
     lambda(    7)=  0.0161   gamma=   73.74 GHz
     lambda(    8)=  0.0159   gamma=   72.88 GHz
     lambda(    9)=  0.0727   gamma=  374.46 GHz
     lambda(   10)=  0.1122   gamma=  666.51 GHz
     lambda(   11)=  0.1069   gamma=  634.88 GHz
     lambda(   12)=  0.0458   gamma=  273.71 GHz
     lambda(   13)=  0.0488   gamma=  345.68 GHz
     lambda(   14)=  0.0555   gamma=  393.81 GHz
     lambda(   15)=  0.1617   gamma= 1171.68 GHz
     lambda(   16)=  0.0851   gamma=  663.12 GHz
     lambda(   17)=  0.0794   gamma=  618.56 GHz
     lambda(   18)=  0.0964   gamma=  784.16 GHz
     lambda(   19)=  0.0106   gamma=   94.80 GHz
     lambda(   20)=  0.0234   gamma=  218.14 GHz
     lambda(   21)=  0.0229   gamma=  213.76 GHz
     lambda(   22)=  0.0124   gamma=  120.01 GHz
     lambda(   23)=  0.0147   gamma=  145.71 GHz
     lambda(   24)=  0.1187   gamma= 1312.17 GHz
     lambda(   25)=  0.2211   gamma= 2680.56 GHz
     lambda(   26)=  0.0184   gamma=  260.76 GHz
     lambda(   27)=  0.0190   gamma=  269.32 GHz
     lambda(   28)=  0.0181   gamma=  261.59 GHz
     lambda(   29)=  0.0162   gamma=  236.89 GHz
     lambda(   30)=  0.0148   gamma=  217.34 GHz
     lambda(   31)=  0.0162   gamma=  248.76 GHz
     lambda(   32)=  0.0076   gamma=  124.71 GHz
     lambda(   33)=  0.0223   gamma=  508.19 GHz
     Gaussian Broadening:   0.015 Ry, ngauss=   0
     DOS =  5.643591 states/spin/Ry/Unit Cell at Ef= 20.442941 eV
     lambda(    1)=  0.3289   gamma=   16.40 GHz
     lambda(    2)=  0.3123   gamma=   15.58 GHz
     lambda(    3)=  0.0577   gamma=   15.31 GHz
     lambda(    4)=  0.2586   gamma=  689.88 GHz
     lambda(    5)=  0.1532   gamma=  467.68 GHz
     lambda(    6)=  0.1695   gamma=  517.53 GHz
     lambda(    7)=  0.0163   gamma=   76.61 GHz
     lambda(    8)=  0.0162   gamma=   76.08 GHz
     lambda(    9)=  0.0691   gamma=  365.84 GHz
     lambda(   10)=  0.0933   gamma=  569.42 GHz
     lambda(   11)=  0.0907   gamma=  553.78 GHz
     lambda(   12)=  0.0431   gamma=  264.70 GHz
     lambda(   13)=  0.0411   gamma=  299.38 GHz
     lambda(   14)=  0.0443   gamma=  322.60 GHz
     lambda(   15)=  0.1327   gamma=  987.41 GHz
     lambda(   16)=  0.0765   gamma=  612.13 GHz
     lambda(   17)=  0.0739   gamma=  591.82 GHz
     lambda(   18)=  0.0869   gamma=  725.98 GHz
     lambda(   19)=  0.0109   gamma=   99.74 GHz
     lambda(   20)=  0.0195   gamma=  186.47 GHz
     lambda(   21)=  0.0192   gamma=  183.89 GHz
     lambda(   22)=  0.0108   gamma=  107.87 GHz
     lambda(   23)=  0.0125   gamma=  127.63 GHz
     lambda(   24)=  0.1301   gamma= 1477.58 GHz
     lambda(   25)=  0.2014   gamma= 2508.52 GHz
     lambda(   26)=  0.0171   gamma=  249.03 GHz
     lambda(   27)=  0.0170   gamma=  248.19 GHz
     lambda(   28)=  0.0191   gamma=  283.71 GHz
     lambda(   29)=  0.0140   gamma=  210.26 GHz
     lambda(   30)=  0.0134   gamma=  202.05 GHz
     lambda(   31)=  0.0150   gamma=  236.98 GHz
     lambda(   32)=  0.0109   gamma=  183.28 GHz
     lambda(   33)=  0.0212   gamma=  495.47 GHz
     Gaussian Broadening:   0.020 Ry, ngauss=   0
     DOS =  5.693100 states/spin/Ry/Unit Cell at Ef= 20.442131 eV
     lambda(    1)=  0.3066   gamma=   15.43 GHz
     lambda(    2)=  0.2982   gamma=   15.00 GHz
     lambda(    3)=  0.0627   gamma=   16.76 GHz
     lambda(    4)=  0.2648   gamma=  712.54 GHz
     lambda(    5)=  0.1534   gamma=  472.39 GHz
     lambda(    6)=  0.1614   gamma=  497.09 GHz
     lambda(    7)=  0.0163   gamma=   77.27 GHz
     lambda(    8)=  0.0162   gamma=   77.04 GHz
     lambda(    9)=  0.0677   gamma=  361.68 GHz
     lambda(   10)=  0.0843   gamma=  519.30 GHz
     lambda(   11)=  0.0829   gamma=  510.71 GHz
     lambda(   12)=  0.0451   gamma=  279.21 GHz
     lambda(   13)=  0.0364   gamma=  267.62 GHz
     lambda(   14)=  0.0381   gamma=  279.93 GHz
     lambda(   15)=  0.1212   gamma=  909.68 GHz
     lambda(   16)=  0.0770   gamma=  621.67 GHz
     lambda(   17)=  0.0759   gamma=  613.08 GHz
     lambda(   18)=  0.0861   gamma=  725.77 GHz
     lambda(   19)=  0.0108   gamma=   99.82 GHz
     lambda(   20)=  0.0169   gamma=  162.97 GHz
     lambda(   21)=  0.0167   gamma=  161.93 GHz
     lambda(   22)=  0.0100   gamma=  100.05 GHz
     lambda(   23)=  0.0121   gamma=  123.71 GHz
     lambda(   24)=  0.1331   gamma= 1524.99 GHz
     lambda(   25)=  0.1924   gamma= 2417.18 GHz
     lambda(   26)=  0.0170   gamma=  250.40 GHz
     lambda(   27)=  0.0167   gamma=  245.67 GHz
     lambda(   28)=  0.0198   gamma=  296.59 GHz
     lambda(   29)=  0.0133   gamma=  201.40 GHz
     lambda(   30)=  0.0130   gamma=  198.24 GHz
     lambda(   31)=  0.0154   gamma=  245.23 GHz
     lambda(   32)=  0.0132   gamma=  224.57 GHz
     lambda(   33)=  0.0217   gamma=  511.72 GHz
     Gaussian Broadening:   0.025 Ry, ngauss=   0
     DOS =  5.666404 states/spin/Ry/Unit Cell at Ef= 20.442478 eV
     lambda(    1)=  0.2959   gamma=   14.81 GHz
     lambda(    2)=  0.2908   gamma=   14.56 GHz
     lambda(    3)=  0.0649   gamma=   17.26 GHz
     lambda(    4)=  0.2712   gamma=  726.41 GHz
     lambda(    5)=  0.1551   gamma=  475.45 GHz
     lambda(    6)=  0.1595   gamma=  488.87 GHz
     lambda(    7)=  0.0162   gamma=   76.76 GHz
     lambda(    8)=  0.0162   gamma=   76.78 GHz
     lambda(    9)=  0.0667   gamma=  354.68 GHz
     lambda(   10)=  0.0806   gamma=  494.24 GHz
     lambda(   11)=  0.0799   gamma=  489.88 GHz
     lambda(   12)=  0.0475   gamma=  292.92 GHz
     lambda(   13)=  0.0347   gamma=  253.66 GHz
     lambda(   14)=  0.0356   gamma=  260.58 GHz
     lambda(   15)=  0.1166   gamma=  870.99 GHz
     lambda(   16)=  0.0784   gamma=  630.23 GHz
     lambda(   17)=  0.0781   gamma=  627.73 GHz
     lambda(   18)=  0.0864   gamma=  725.16 GHz
     lambda(   19)=  0.0106   gamma=   97.39 GHz
     lambda(   20)=  0.0157   gamma=  151.31 GHz
     lambda(   21)=  0.0157   gamma=  151.33 GHz
     lambda(   22)=  0.0095   gamma=   94.79 GHz
     lambda(   23)=  0.0121   gamma=  123.68 GHz
     lambda(   24)=  0.1335   gamma= 1522.26 GHz
     lambda(   25)=  0.1867   gamma= 2334.70 GHz
     lambda(   26)=  0.0172   gamma=  251.98 GHz
     lambda(   27)=  0.0168   gamma=  246.15 GHz
     lambda(   28)=  0.0202   gamma=  300.66 GHz
     lambda(   29)=  0.0131   gamma=  198.33 GHz
     lambda(   30)=  0.0131   gamma=  197.82 GHz
     lambda(   31)=  0.0161   gamma=  255.93 GHz
     lambda(   32)=  0.0146   gamma=  248.01 GHz
     lambda(   33)=  0.0225   gamma=  528.79 GHz
     Gaussian Broadening:   0.030 Ry, ngauss=   0
     DOS =  5.611139 states/spin/Ry/Unit Cell at Ef= 20.443739 eV
     lambda(    1)=  0.2883   gamma=   14.29 GHz
     lambda(    2)=  0.2847   gamma=   14.12 GHz
     lambda(    3)=  0.0649   gamma=   17.10 GHz
     lambda(    4)=  0.2742   gamma=  727.21 GHz
     lambda(    5)=  0.1555   gamma=  471.85 GHz
     lambda(    6)=  0.1581   gamma=  479.95 GHz
     lambda(    7)=  0.0161   gamma=   75.56 GHz
     lambda(    8)=  0.0162   gamma=   75.73 GHz
     lambda(    9)=  0.0656   gamma=  345.52 GHz
     lambda(   10)=  0.0789   gamma=  478.82 GHz
     lambda(   11)=  0.0786   gamma=  477.09 GHz
     lambda(   12)=  0.0491   gamma=  299.41 GHz
     lambda(   13)=  0.0340   gamma=  246.41 GHz
     lambda(   14)=  0.0346   gamma=  250.59 GHz
     lambda(   15)=  0.1135   gamma=  839.95 GHz
     lambda(   16)=  0.0789   gamma=  628.09 GHz
     lambda(   17)=  0.0790   gamma=  628.39 GHz
     lambda(   18)=  0.0859   gamma=  713.48 GHz
     lambda(   19)=  0.0102   gamma=   93.15 GHz
     lambda(   20)=  0.0152   gamma=  145.29 GHz
     lambda(   21)=  0.0153   gamma=  145.79 GHz
     lambda(   22)=  0.0091   gamma=   90.41 GHz
     lambda(   23)=  0.0122   gamma=  123.41 GHz
     lambda(   24)=  0.1319   gamma= 1488.95 GHz
     lambda(   25)=  0.1812   gamma= 2244.60 GHz
     lambda(   26)=  0.0173   gamma=  250.36 GHz
     lambda(   27)=  0.0169   gamma=  244.60 GHz
     lambda(   28)=  0.0202   gamma=  297.15 GHz
     lambda(   29)=  0.0131   gamma=  195.72 GHz
     lambda(   30)=  0.0131   gamma=  196.45 GHz
     lambda(   31)=  0.0166   gamma=  261.15 GHz
     lambda(   32)=  0.0152   gamma=  255.68 GHz
     lambda(   33)=  0.0229   gamma=  533.20 GHz
     Gaussian Broadening:   0.035 Ry, ngauss=   0
     DOS =  5.552244 states/spin/Ry/Unit Cell at Ef= 20.445745 eV
     lambda(    1)=  0.2819   gamma=   13.83 GHz
     lambda(    2)=  0.2790   gamma=   13.69 GHz
     lambda(    3)=  0.0638   gamma=   16.64 GHz
     lambda(    4)=  0.2749   gamma=  721.52 GHz
     lambda(    5)=  0.1548   gamma=  464.90 GHz
     lambda(    6)=  0.1566   gamma=  470.23 GHz
     lambda(    7)=  0.0160   gamma=   74.09 GHz
     lambda(    8)=  0.0161   gamma=   74.35 GHz
     lambda(    9)=  0.0646   gamma=  336.39 GHz
     lambda(   10)=  0.0780   gamma=  468.67 GHz
     lambda(   11)=  0.0780   gamma=  468.60 GHz
     lambda(   12)=  0.0497   gamma=  300.10 GHz
     lambda(   13)=  0.0338   gamma=  242.02 GHz
     lambda(   14)=  0.0341   gamma=  244.70 GHz
     lambda(   15)=  0.1107   gamma=  810.92 GHz
     lambda(   16)=  0.0788   gamma=  620.40 GHz
     lambda(   17)=  0.0790   gamma=  621.79 GHz
     lambda(   18)=  0.0846   gamma=  695.62 GHz
     lambda(   19)=  0.0098   gamma=   88.50 GHz
     lambda(   20)=  0.0150   gamma=  141.85 GHz
     lambda(   21)=  0.0151   gamma=  142.48 GHz
     lambda(   22)=  0.0088   gamma=   86.49 GHz
     lambda(   23)=  0.0122   gamma=  122.50 GHz
     lambda(   24)=  0.1291   gamma= 1442.63 GHz
     lambda(   25)=  0.1756   gamma= 2151.44 GHz
     lambda(   26)=  0.0173   gamma=  247.37 GHz
     lambda(   27)=  0.0169   gamma=  242.17 GHz
     lambda(   28)=  0.0199   gamma=  290.16 GHz
     lambda(   29)=  0.0130   gamma=  193.07 GHz
     lambda(   30)=  0.0131   gamma=  194.29 GHz
     lambda(   31)=  0.0168   gamma=  261.28 GHz
     lambda(   32)=  0.0154   gamma=  254.86 GHz
     lambda(   33)=  0.0230   gamma=  528.73 GHz
     Gaussian Broadening:   0.040 Ry, ngauss=   0
     DOS =  5.498034 states/spin/Ry/Unit Cell at Ef= 20.448391 eV
     lambda(    1)=  0.2765   gamma=   13.43 GHz
     lambda(    2)=  0.2739   gamma=   13.31 GHz
     lambda(    3)=  0.0623   gamma=   16.10 GHz
     lambda(    4)=  0.2745   gamma=  713.48 GHz
     lambda(    5)=  0.1538   gamma=  457.45 GHz
     lambda(    6)=  0.1551   gamma=  461.18 GHz
     lambda(    7)=  0.0158   gamma=   72.58 GHz
     lambda(    8)=  0.0159   gamma=   72.88 GHz
     lambda(    9)=  0.0636   gamma=  328.04 GHz
     lambda(   10)=  0.0778   gamma=  462.59 GHz
     lambda(   11)=  0.0780   gamma=  463.58 GHz
     lambda(   12)=  0.0497   gamma=  297.42 GHz
     lambda(   13)=  0.0337   gamma=  239.40 GHz
     lambda(   14)=  0.0340   gamma=  241.19 GHz
     lambda(   15)=  0.1081   gamma=  783.77 GHz
     lambda(   16)=  0.0784   gamma=  611.14 GHz
     lambda(   17)=  0.0786   gamma=  612.80 GHz
     lambda(   18)=  0.0831   gamma=  676.50 GHz
     lambda(   19)=  0.0094   gamma=   84.23 GHz
     lambda(   20)=  0.0150   gamma=  139.86 GHz
     lambda(   21)=  0.0150   gamma=  140.46 GHz
     lambda(   22)=  0.0086   gamma=   82.96 GHz
     lambda(   23)=  0.0122   gamma=  121.13 GHz
     lambda(   24)=  0.1261   gamma= 1394.72 GHz
     lambda(   25)=  0.1699   gamma= 2061.68 GHz
     lambda(   26)=  0.0172   gamma=  244.51 GHz
     lambda(   27)=  0.0169   gamma=  240.06 GHz
     lambda(   28)=  0.0196   gamma=  282.36 GHz
     lambda(   29)=  0.0130   gamma=  190.62 GHz
     lambda(   30)=  0.0131   gamma=  191.95 GHz
     lambda(   31)=  0.0168   gamma=  258.44 GHz
     lambda(   32)=  0.0152   gamma=  250.07 GHz
     lambda(   33)=  0.0229   gamma=  520.89 GHz
     Gaussian Broadening:   0.045 Ry, ngauss=   0
     DOS =  5.450225 states/spin/Ry/Unit Cell at Ef= 20.451582 eV
     lambda(    1)=  0.2719   gamma=   13.09 GHz
     lambda(    2)=  0.2695   gamma=   12.98 GHz
     lambda(    3)=  0.0608   gamma=   15.56 GHz
     lambda(    4)=  0.2737   gamma=  704.98 GHz
     lambda(    5)=  0.1530   gamma=  451.01 GHz
     lambda(    6)=  0.1539   gamma=  453.75 GHz
     lambda(    7)=  0.0157   gamma=   71.16 GHz
     lambda(    8)=  0.0157   gamma=   71.45 GHz
     lambda(    9)=  0.0627   gamma=  320.52 GHz
     lambda(   10)=  0.0780   gamma=  459.64 GHz
     lambda(   11)=  0.0783   gamma=  461.34 GHz
     lambda(   12)=  0.0494   gamma=  293.09 GHz
     lambda(   13)=  0.0338   gamma=  238.09 GHz
     lambda(   14)=  0.0340   gamma=  239.31 GHz
     lambda(   15)=  0.1055   gamma=  758.55 GHz
     lambda(   16)=  0.0779   gamma=  601.85 GHz
     lambda(   17)=  0.0781   gamma=  603.42 GHz
     lambda(   18)=  0.0816   gamma=  658.40 GHz
     lambda(   19)=  0.0091   gamma=   80.60 GHz
     lambda(   20)=  0.0150   gamma=  138.83 GHz
     lambda(   21)=  0.0151   gamma=  139.34 GHz
     lambda(   22)=  0.0083   gamma=   79.81 GHz
     lambda(   23)=  0.0122   gamma=  119.46 GHz
     lambda(   24)=  0.1231   gamma= 1350.34 GHz
     lambda(   25)=  0.1645   gamma= 1978.43 GHz
     lambda(   26)=  0.0172   gamma=  242.41 GHz
     lambda(   27)=  0.0170   gamma=  238.75 GHz
     lambda(   28)=  0.0192   gamma=  274.93 GHz
     lambda(   29)=  0.0130   gamma=  188.47 GHz
     lambda(   30)=  0.0130   gamma=  189.76 GHz
     lambda(   31)=  0.0167   gamma=  254.30 GHz
     lambda(   32)=  0.0149   gamma=  243.55 GHz
     lambda(   33)=  0.0227   gamma=  512.89 GHz
     Gaussian Broadening:   0.050 Ry, ngauss=   0
     DOS =  5.408705 states/spin/Ry/Unit Cell at Ef= 20.455233 eV
     lambda(    1)=  0.2680   gamma=   12.81 GHz
     lambda(    2)=  0.2659   gamma=   12.71 GHz
     lambda(    3)=  0.0593   gamma=   15.06 GHz
     lambda(    4)=  0.2726   gamma=  697.02 GHz
     lambda(    5)=  0.1525   gamma=  446.22 GHz
     lambda(    6)=  0.1532   gamma=  448.31 GHz
     lambda(    7)=  0.0155   gamma=   69.89 GHz
     lambda(    8)=  0.0156   gamma=   70.14 GHz
     lambda(    9)=  0.0618   gamma=  313.79 GHz
     lambda(   10)=  0.0784   gamma=  458.94 GHz
     lambda(   11)=  0.0788   gamma=  461.14 GHz
     lambda(   12)=  0.0490   gamma=  288.11 GHz
     lambda(   13)=  0.0341   gamma=  237.75 GHz
     lambda(   14)=  0.0342   gamma=  238.62 GHz
     lambda(   15)=  0.1031   gamma=  735.20 GHz
     lambda(   16)=  0.0773   gamma=  592.99 GHz
     lambda(   17)=  0.0775   gamma=  594.32 GHz
     lambda(   18)=  0.0801   gamma=  642.01 GHz
     lambda(   19)=  0.0089   gamma=   77.65 GHz
     lambda(   20)=  0.0151   gamma=  138.45 GHz
     lambda(   21)=  0.0151   gamma=  138.88 GHz
     lambda(   22)=  0.0081   gamma=   77.05 GHz
     lambda(   23)=  0.0121   gamma=  117.64 GHz
     lambda(   24)=  0.1205   gamma= 1311.12 GHz
     lambda(   25)=  0.1594   gamma= 1902.50 GHz
     lambda(   26)=  0.0173   gamma=  241.26 GHz
     lambda(   27)=  0.0171   gamma=  238.34 GHz
     lambda(   28)=  0.0189   gamma=  268.36 GHz
     lambda(   29)=  0.0129   gamma=  186.65 GHz
     lambda(   30)=  0.0130   gamma=  187.82 GHz
     lambda(   31)=  0.0165   gamma=  249.75 GHz
     lambda(   32)=  0.0146   gamma=  236.52 GHz
     lambda(   33)=  0.0226   gamma=  506.06 GHz
 
 
     Number of q in the star =    6
     List of q in the star:
          1   0.235702260   0.000000000   0.000000000
          2  -0.235702260   0.000000000   0.000000000
          3   0.000000000   0.000000000   0.235702260
          4   0.000000000   0.000000000  -0.235702260
          5   0.000000000   0.235702260   0.000000000
          6   0.000000000  -0.235702260   0.000000000
 
     init_run     :      0.48s CPU      0.71s WALL (       1 calls)
     electrons    :     11.60s CPU     14.78s WALL (       1 calls)

     Called by init_run:
     wfcinit      :      0.00s CPU      0.03s WALL (       1 calls)
     potinit      :      0.24s CPU      0.38s WALL (       1 calls)
     hinit0       :      0.09s CPU      0.10s WALL (       1 calls)

     Called by electrons:
     c_bands      :     11.57s CPU     14.73s WALL (       1 calls)
     v_of_rho     :      0.02s CPU      0.07s WALL (       2 calls)
     newd         :      0.04s CPU      0.14s WALL (       2 calls)
     PAW_pot      :      0.40s CPU      0.53s WALL (       2 calls)

     Called by c_bands:
     init_us_2    :      1.89s CPU      2.20s WALL (   20424 calls)
     cegterg      :      6.79s CPU      7.33s WALL (     261 calls)

     Called by *egterg:
     cdiaghg      :      2.11s CPU      2.27s WALL (    4102 calls)
     h_psi        :    449.60s CPU    576.38s WALL (  343049 calls)
     s_psi        :     14.94s CPU     16.26s WALL (  701049 calls)
     g_psi        :      0.02s CPU      0.02s WALL (    3954 calls)

     Called by h_psi:
     h_psi:calbec :     10.33s CPU     11.24s WALL (  343049 calls)
     vloc_psi     :    428.86s CPU    553.83s WALL (  343049 calls)
     add_vuspsi   :      7.71s CPU      8.40s WALL (  343049 calls)

     General routines
     calbec       :     42.77s CPU     45.03s WALL (  733609 calls)
     fft          :      1.89s CPU      2.67s WALL (    5667 calls)
     ffts         :     40.54s CPU     64.21s WALL (    3824 calls)
     fftw         :    652.47s CPU    919.20s WALL ( 5916649 calls)
     interpolate  :      0.89s CPU      1.33s WALL (     557 calls)
     davcio       :      8.44s CPU    439.40s WALL (  100780 calls)
 
     Parallel routines
 
     PHONON       :  26m58.75s CPU  43m27.97s WALL

     INITIALIZATION: 
     phq_setup    :      0.02s CPU      0.08s WALL (       1 calls)
     phq_init     :     12.29s CPU     14.83s WALL (       1 calls)
 
     phq_init     :     12.29s CPU     14.83s WALL (       1 calls)
     set_drhoc    :      0.00s CPU      0.00s WALL (       3 calls)
     init_vloc    :      0.00s CPU      0.04s WALL (       2 calls)
     init_us_1    :      0.15s CPU      0.31s WALL (       2 calls)
     init_us_2    :      1.89s CPU      2.20s WALL (   20424 calls)
     newd         :      0.04s CPU      0.14s WALL (       2 calls)
     dvanqq       :      1.73s CPU      1.74s WALL (       1 calls)
     drho         :      8.12s CPU     10.09s WALL (       1 calls)
     drhous       :      3.38s CPU      4.05s WALL (       1 calls)
     nldyntot     :      0.26s CPU      0.26s WALL (       1 calls)
 
     DYNAMICAL MATRIX:
     dynmat0      :      1.28s CPU      1.57s WALL (       1 calls)
     dynmat_us    :      1.22s CPU      1.49s WALL (       1 calls)
     addusdynmat  :      0.00s CPU      0.00s WALL (       1 calls)
     d2ionq       :      0.04s CPU      0.04s WALL (       1 calls)
     dynmatcc     :      0.01s CPU      0.01s WALL (       1 calls)
     phqscf       :   1566.62s CPU   2537.77s WALL (       1 calls)
     dynmatrix    :      0.26s CPU      0.29s WALL (       1 calls)
 
     phqscf       :   1566.62s CPU   2537.77s WALL (       1 calls)
     solve_linter :   1543.71s CPU   2492.06s WALL (      24 calls)
     sth_kernel   :   1129.59s CPU   1694.78s WALL (     198 calls)
     h_prec       :    273.06s CPU    277.83s WALL (   14652 calls)
     apply_dpot_b :    141.13s CPU    218.02s WALL (   19314 calls)
     ortho        :     25.47s CPU     26.19s WALL (   19314 calls)
     cgsolve      :    490.28s CPU    620.69s WALL (   19314 calls)
     incdrhoscf   :    140.14s CPU    210.40s WALL (   19314 calls)
                                        0.00s GPU  (   19314 calls)
     addusddens   :     22.15s CPU     28.30s WALL (     222 calls)
     vpsifft      :     30.14s CPU     48.22s WALL (    2442 calls)
     dv_of_drho   :      2.34s CPU      2.64s WALL (     261 calls)
     mix_pot      :     35.18s CPU    130.89s WALL (     198 calls)
     drhodv       :     22.86s CPU     30.53s WALL (      24 calls)
     psymdvscf    :     34.49s CPU     35.12s WALL (     198 calls)
     newdq        :     22.71s CPU     22.90s WALL (     198 calls)
     adddvscf     :      2.43s CPU      2.64s WALL (   19314 calls)
     com_dvloc    :     40.03s CPU     63.33s WALL (    3267 calls)
                                        0.00s GPU  (    3267 calls)
     addcore      :      0.44s CPU      0.52s WALL (    1383 calls)
                                        0.00s GPU  (    1383 calls)
     drhodvus     :      9.43s CPU     34.28s WALL (      24 calls)
 
     dvqpsi_us    :     51.08s CPU     74.95s WALL (    2442 calls)
                                        0.00s GPU  (    2442 calls)
     dvqpsi_us_on :      7.67s CPU      7.78s WALL (    2442 calls)
 
     add_vuspsi   :      7.71s CPU      8.40s WALL (  343049 calls)
     addusdbec    :      1.30s CPU      1.40s WALL (   21756 calls)
 
     drhodvus     :      9.43s CPU     34.28s WALL (      24 calls)
 
      Electron-phonon coupling
     elphel       :     35.03s CPU     73.32s WALL (      24 calls)
     elphsum      :     26.59s CPU     27.20s WALL (       1 calls)
 
      General routines
     calbec       :     42.77s CPU     45.03s WALL (  733609 calls)
     fft          :      1.89s CPU      2.67s WALL (    5667 calls)
     ffts         :     40.54s CPU     64.21s WALL (    3824 calls)
     fftw         :    652.47s CPU    919.20s WALL ( 5916649 calls)
     davcio       :      8.44s CPU    439.40s WALL (  100780 calls)
     write_rec    :      0.39s CPU    150.52s WALL (     222 calls)
 
      Additional routines
     ch_psi       :    483.67s CPU    613.43s WALL (  338686 calls)
     last         :     27.10s CPU     29.47s WALL (  338686 calls)
     Hesh         :      0.95s CPU      1.06s WALL (  338686 calls)
     ch_psi_all_k :     24.57s CPU     26.72s WALL (  338686 calls)
                                        0.00s GPU  (  338686 calls)
     ch_psi_calbe :      8.17s CPU      8.84s WALL (  338686 calls)
                                        0.00s GPU  (  338686 calls)
     h_psi_bgrp   :    450.31s CPU    577.13s WALL (  343049 calls)
     h_psi        :    449.60s CPU    576.38s WALL (  343049 calls)
     h_psi:pot    :    448.40s CPU    575.05s WALL (  343049 calls)
     h_psi:calbec :     10.33s CPU     11.24s WALL (  343049 calls)
     s_psi_bgrp   :     17.16s CPU     18.65s WALL (  701049 calls)
     s_psi        :     14.94s CPU     16.26s WALL (  701049 calls)
 
 
     PHONON       :  26m58.75s CPU  43m27.97s WALL

 
   This run was terminated on:  14:35:14  22Oct2025            

=------------------------------------------------------------------------------=
   JOB DONE.
=------------------------------------------------------------------------------=
